LAMMPS (10 Feb 2021)
# Input written to comply with LAMMPS 2017-08-11 00:00:00

# Atomic Configuration
units           metal
boundary        p p p
box tilt large
atom_style      charge
read_data       na3ocl.lmp
Reading data file ...
  orthogonal box = (0.0000000 0.0000000 0.0000000) to (13.503000 13.503000 13.503000)
  1 by 1 by 1 MPI processor grid
  reading atoms ...
  129 atoms
  read_data CPU = 0.001 seconds

# Potential Setup
pair_style  buck/coul/long 12.0
pair_coeff * * 0.0 1.0 0.0
pair_coeff 1 1    1788.190000  0.159000   0.000000 # Na Na
pair_coeff 1 3    1170.410000  0.315000   0.000000 # Na Cl
pair_coeff 1 2     588.380000  0.338000   0.000000 # Na O
pair_coeff 3 3    1227.200000  0.321000  14.530000 # Cl Cl
pair_coeff 2 3    8286.910000  0.259000  62.200000 # Cl O
pair_coeff 2 2   22764.300000  0.149000  13.190000 # O  O
kspace_style pppm 1e-05

# General Setup
timestep        0.001

# Thermodynamic Information Output
thermo_style custom step temp epair emol etotal press lx ly lz fmax cpu cpuremain
thermo          1000

# Intial Atom Velocity
velocity all create 800 80800 dist gaussian rot yes

# Stage 0: npt_equilibriation
restart         0
fix             int all npt aniso 1.0 1.0 0.1 temp 800 800 0.5
run             50000
PPPM initialization ...
  using 12-bit tables for long-range coulomb (../kspace.cpp:339)
  G vector (1/distance) = 0.27805162
  grid = 15 15 15
  stencil order = 5
  estimated absolute RMS force accuracy = 6.1260485e-05
  estimated relative force accuracy = 4.2543052e-06
  using double precision KISS FFT
  3d grid and FFT values/proc = 10648 3375
Neighbor list info ...
  update every 1 steps, delay 10 steps, check yes
  max neighbors/atom: 2000, page size: 100000
  master list distance cutoff = 14
  ghost atom cutoff = 14
  binsize = 7, bins = 2 2 2
  1 neighbor lists, perpetual/occasional/extra = 1 0 0
  (1) pair buck/coul/long, perpetual
      attributes: half, newton on
      pair build: half/bin/atomonly/newton
      stencil: half/bin/3d/newton
      bin: standard
Per MPI rank memory allocation (min/avg/max) = 4.400 | 4.400 | 4.400 Mbytes
Step Temp E_pair E_mol TotEng Press Lx Ly Lz Fmax CPU CPULeft 
       0          800   -890.25354            0   -877.01731   -18943.152       13.503       13.503       13.503    5.4570963            0            0 
    1000    773.80152   -894.04399            0   -881.24121   -65.431581    13.398475    13.438629    13.530638    1.8663717    2.5194299    123.45207 
    2000    746.82327   -894.16773            0   -881.81131   -5157.5507    13.364247    13.584701    13.572339    1.9593609     5.050422    121.21015 
    3000    802.93985   -892.91661            0   -879.63174    7194.1627    13.211358    13.664883    13.245953    2.9971815     7.551511    118.30702 
    4000    838.18325   -894.29075            0   -880.42275   -1603.0033      13.3099    13.599247    13.408358    2.1647123    10.050358    115.57916 
    5000    710.61568   -893.99264            0   -882.23529    7046.7299    13.395378    13.374729    13.251856    2.7593754    12.545414    112.90873 
    6000     767.3502   -891.97822            0   -879.28218    1022.3313    13.443147    13.445154    13.419232    2.5719666    15.038741    110.28411 
    7000     774.1419    -893.0922            0   -880.28379    1691.8218    13.324327    13.410439    13.404079    2.5318273    17.535327    107.71701 
    8000      693.572   -894.35015            0    -882.8748    4114.5137    13.299833    13.305546     13.50019    2.2304705     20.03779     105.1984 
    9000    890.29736   -894.35399            0   -879.62375    2637.5919    13.386169    13.349726    13.522965    2.1508445    22.536394     102.6658 
   10000    830.70503   -892.91725            0   -879.17298    9168.8658     13.36549    13.195963    13.418018    2.1904008    25.030748    100.12299 
   11000    785.23574   -894.20204            0   -881.21008    1133.4633    13.430438    13.341164    13.468232    2.6320438    27.523441    97.583113 
   12000    915.45843   -894.89416            0   -879.74763    5407.6673    13.184134    13.220491    13.751205    1.9516363    30.020575    95.065154 
   13000    882.44838   -891.55737            0     -876.957    6051.8295    13.092559     13.38704    13.727544    2.5441257    32.508972    92.525538 
   14000    796.45554   -893.91273            0   -880.73514   -373.04428    13.397171     13.28304    13.656264    2.1863176    34.999575    89.998909 
   15000    774.34912   -894.22429            0   -881.41245   -1603.7081    13.501902    13.232862     13.65715    2.6607734    37.495808    87.490221 
   16000    906.27145   -893.09711            0   -878.10258   -3081.9253    13.408276    13.445728    13.687862    2.9525667    39.984679    84.967445 
   17000    742.37097   -892.97759            0   -880.69484    4407.9836    13.329981    13.102692    13.796224    2.1722184    42.472974    82.447538 
   18000    762.94711    -893.0172            0   -880.39401   -1169.0771    13.346293    13.450554     13.51968    1.9721256    44.967274    79.941822 
   19000    847.75316   -891.80014            0   -877.77382    14237.379    13.376249    13.273708    13.245797    1.8650105    47.460766    77.435988 
   20000    841.78542   -892.11336            0   -878.18577    308.55423    13.612275    13.246069    13.520656    3.4871247    49.949153    74.923731 
   21000    709.75767   -891.76101            0   -880.01786   -573.35807    13.655397    13.246462    13.465359    2.4505504    52.442315     72.42034 
   22000    767.49885   -893.78124            0   -881.08274   -5993.3041    13.430705    13.353117    13.821376    1.8855271    54.936204    69.918806 
   23000    661.36558   -895.14362            0   -884.20113    5377.1076    13.396067    13.320897    13.287895    1.8880057    57.430297    67.418176 
   24000    715.62415   -893.14006            0   -881.29985    1775.7962    13.419933    13.169043    13.621362    2.4398636    59.934734    64.929296 
   25000    858.88316   -893.32375            0   -879.11327     7662.544    13.150989    13.602965    13.363559    2.4801714    62.428007    62.428007 
   26000    761.83332   -893.32045            0   -880.71569    2362.1551    13.395258    13.482207    13.474822    2.7129447    64.923354    59.929251 
   27000    800.58147   -894.24024            0   -880.99438    4748.7549    13.238779    13.561949    13.371445    2.5974448    67.421212    57.432885 
   28000    808.84593   -892.63643            0   -879.25383    1655.9259    13.468831    13.533226    13.308467    2.3283048    69.917375    54.935081 
   29000     928.1084   -893.10349            0   -877.74766     3434.291    13.560999    13.298818    13.381068    2.4461515    72.412942    52.436958 
   30000    788.53876   -893.93597            0   -880.88936   -4598.7222     13.24745    13.766331    13.529289    2.0738585    74.900989    49.933993 
   31000    810.72499   -894.43074            0   -881.01705    9382.8776    13.567328    13.170149    13.186166    2.6974304    77.398756    47.437947 
   32000    842.60022   -892.31762            0   -878.37655    142.50499    13.253698      13.6917    13.379282    1.9797476    79.902696    44.945267 
   33000    836.37644     -894.591            0    -880.7529   -1338.3903     13.44084    13.442259    13.431501    2.8154278    82.397613    42.447256 
   34000    735.65364   -893.40704            0   -881.23543    632.53292    13.615856    13.471576    13.129136    2.1168938     84.89611    39.951111 
   35000    827.17486   -892.20699            0   -878.52114   -4629.6491    13.489446    13.251891     13.71574    2.5765879    87.390749    37.453179 
   36000    788.38031   -894.39503            0   -881.35104   -4324.7733    13.239732    13.551571    13.618601    2.4541902    89.890299    34.957339 
   37000    773.86824   -893.13891            0   -880.33503    5940.1739    13.328444    13.205574    13.546888    2.5827632    92.381685     32.45843 
   38000    848.93385   -894.11843            0   -880.07257   -1221.3231    13.431136    13.508355    13.391877    2.2164821    94.878003    29.961475 
   39000    807.11216   -892.45917            0   -879.10526   -608.76316    13.517008    13.381296    13.419784    2.7283074    97.371787    27.463838 
   40000    764.69253   -894.71799            0   -882.06592   -77.827258     13.21003    13.517831    13.581567     2.304465    99.876354    24.969089 
   41000    895.12469   -893.77573            0   -878.96563   -2970.3222    13.489238    13.684347    13.175976    2.1179476    102.36956    22.471366 
   42000    827.53678   -893.97938            0   -880.28754     1709.094    13.234822    13.406764    13.475553    2.8644366    104.86045     19.97342 
   43000    799.40973   -895.04207            0    -881.8156    2228.1683    13.189332    13.405626    13.659996    2.2851418    107.35394    17.476222 
   44000    705.77574   -895.02548            0   -883.34821    7120.2971    13.157284    13.446975    13.385975    1.9696843    109.86227    14.981219 
   45000     744.4585   -892.65786            0   -880.34057    2999.9988    13.450059    13.342834    13.381806    1.9043807    112.34972    12.483302 
   46000    766.39197    -891.9808            0   -879.30061   -2684.7155    13.522153     13.17696    13.695224    2.2835575    114.84365    9.9864048 
   47000    792.30087   -894.91426            0   -881.80541   -6000.9774    13.440952    13.381792    13.602527    1.8860086    117.33349    7.4893718 
   48000    812.25573   -893.29063            0   -879.85161   -6950.4501    13.339948    13.549843    13.808495    1.7266464    119.84706    4.9936277 
   49000     833.5607   -892.48941            0    -878.6979    4635.4598    13.588831    13.222798    13.441184    3.4519155     122.3386    2.4967061 
   50000    819.33202   -894.86532            0   -881.30922    7797.5995     13.45396    13.353653    13.253679     2.501343    124.83082            0 
Loop time of 124.831 on 1 procs for 50000 steps with 129 atoms

Performance: 34.607 ns/day, 0.694 hours/ns, 400.542 timesteps/s
99.9% CPU use with 1 MPI tasks x no OpenMP threads

MPI task timing breakdown:
Section |  min time  |  avg time  |  max time  |%varavg| %total
---------------------------------------------------------------
Pair    | 61.888     | 61.888     | 61.888     |   0.0 | 49.58
Kspace  | 29.087     | 29.087     | 29.087     |   0.0 | 23.30
Neigh   | 1.012      | 1.012      | 1.012      |   0.0 |  0.81
Comm    | 0.85079    | 0.85079    | 0.85079    |   0.0 |  0.68
Output  | 0.0010328  | 0.0010328  | 0.0010328  |   0.0 |  0.00
Modify  | 31.802     | 31.802     | 31.802     |   0.0 | 25.48
Other   |            | 0.19       |            |       |  0.15

Nlocal:        129.000 ave         129 max         129 min
Histogram: 1 0 0 0 0 0 0 0 0 0
Nghost:        3847.00 ave        3847 max        3847 min
Histogram: 1 0 0 0 0 0 0 0 0 0
Neighs:        40287.0 ave       40287 max       40287 min
Histogram: 1 0 0 0 0 0 0 0 0 0

Total # of neighbors = 40287
Ave neighs/atom = 312.30233
Neighbor list builds = 1000
Dangerous builds = 0

# Stage 1: nvt_equilibriation
unfix int
restart         0
fix             int all nvt temp 800 800 0.5
run             50000
PPPM initialization ...
  using 12-bit tables for long-range coulomb (../kspace.cpp:339)
  G vector (1/distance) = 0.27856857
  grid = 15 15 15
  stencil order = 5
  estimated absolute RMS force accuracy = 5.9523024e-05
  estimated relative force accuracy = 4.1336453e-06
  using double precision KISS FFT
  3d grid and FFT values/proc = 10648 3375
Per MPI rank memory allocation (min/avg/max) = 4.400 | 4.400 | 4.400 Mbytes
Step Temp E_pair E_mol TotEng Press Lx Ly Lz Fmax CPU CPULeft 
   50000    819.33202   -894.86542            0   -881.30933    7797.0885     13.45396    13.353653    13.253679    2.5013436            0            0 
   51000    844.29479   -893.26685            0   -879.29774    7256.3182     13.45396    13.353653    13.253679    2.6797921     1.862792    91.276809 
   52000    818.74851   -893.02119            0   -879.47475    5649.4307     13.45396    13.353653    13.253679     2.095259     3.707947    88.990728 
   53000    793.42528   -894.60773            0   -881.48027    2465.0971     13.45396    13.353653    13.253679    3.0468667    5.5506279    86.959853 
   54000    847.68658   -893.44371            0   -879.41848     2736.678     13.45396    13.353653    13.253679    2.1603717     7.396194    85.056242 
   55000    808.55707   -893.67524            0   -880.29742    11020.329     13.45396    13.353653    13.253679    4.3960716    9.2428589     83.18573 
   56000    739.44475   -894.30245            0   -882.06811    5118.0205     13.45396    13.353653    13.253679    2.2258961    11.088504    81.315704 
   57000    849.56659   -893.03343            0    -878.9771    7373.0576     13.45396    13.353653    13.253679    3.1122972     12.92444    79.392994 
   58000    752.87591   -892.84301            0   -880.38645    8076.9685     13.45396    13.353653    13.253679    2.3519581    14.764721     77.51479 
   59000    725.52376    -893.4631            0   -881.45909    4929.5115     13.45396    13.353653    13.253679    2.7110236    16.619129    75.709365 
   60000    747.55005   -894.22798            0   -881.85954    5785.0467     13.45396    13.353653    13.253679    1.7527523    18.480659     73.92264 
   61000    870.70322   -893.28233            0   -878.87629    8585.2107     13.45396    13.353653    13.253679    2.4133019    20.322117    72.051142 
   62000    761.79314   -894.71871            0   -882.11462    4944.0134     13.45396    13.353653    13.253679    2.2923515    22.159667    70.172282 
   63000    758.42182   -893.77991            0    -881.2316    5221.3754     13.45396    13.353653    13.253679    1.6757565    24.000631    68.309488 
   64000    914.36134    -894.0433            0   -878.91492    6167.8625     13.45396    13.353653    13.253679     2.094281    25.838845    66.442744 
   65000      812.306   -894.47939            0   -881.03955    6285.0959     13.45396    13.353653    13.253679    3.0100951    27.678434    64.583015 
   66000     765.5211   -894.83634            0   -882.17057    4566.2426     13.45396    13.353653    13.253679    1.8461433    29.516103    62.721721 
   67000    823.11574   -892.76979            0    -879.1511    7612.4998     13.45396    13.353653    13.253679    2.5098476    31.355433    60.866431 
   68000    840.86538   -894.50491            0   -880.59254    3575.1015     13.45396    13.353653    13.253679     2.077064    33.196925    59.016757 
   69000    739.55043     -893.642            0   -881.40592    6272.0289     13.45396    13.353653    13.253679    2.6925175    35.041367    57.172758 
   70000    803.55485   -894.23901            0   -880.94395      4694.07     13.45396    13.353653    13.253679    1.9138219    36.881397    55.322096 
   71000    833.09979   -893.39381            0   -879.60993    6374.0104     13.45396    13.353653    13.253679    2.0982324    38.720763    53.471531 
   72000    771.00966   -895.50998            0    -882.7534    2798.8874     13.45396    13.353653    13.253679    2.0937208    40.560747     51.62277 
   73000    782.43908   -894.03569            0      -881.09    4052.2909     13.45396    13.353653    13.253679    2.5684544    42.398412     49.77205 
   74000    854.93795   -894.90826            0   -880.76305    7199.9392     13.45396    13.353653    13.253679    2.6890604    44.238866    47.925439 
   75000    706.21417   -893.38058            0   -881.69606    5185.5573     13.45396    13.353653    13.253679    2.3778966    46.078703    46.078704 
   76000      747.475   -894.65817            0   -882.29097    3969.0522     13.45396    13.353653    13.253679    2.4888956    47.916424    44.230546 
   77000    846.13287    -893.3743            0   -879.37478     12005.19     13.45396    13.353653    13.253679    3.8136003    49.756381    42.385066 
   78000    779.92554   -894.91368            0   -882.00958     1387.485     13.45396    13.353653    13.253679    2.7050463    51.598488    40.541669 
   79000    638.44964   -893.40902            0   -882.84568    6322.7398     13.45396    13.353653    13.253679    3.0867569    53.437591    38.696187 
   80000     709.5752   -892.09374            0    -880.3536    8508.9591     13.45396    13.353653    13.253679    2.5174744     55.27518    36.850121 
   81000    780.07017   -893.02587            0   -880.11937    6585.7631     13.45396    13.353653    13.253679    2.8608085    57.116595    35.006946 
   82000    760.71183   -895.33689            0   -882.75068     2979.422     13.45396    13.353653    13.253679    2.6205744    58.956032    33.162769 
   83000    863.34164   -894.92405            0    -880.6398    6683.5157     13.45396    13.353653    13.253679    2.0015083    60.801719    31.322098 
   84000    780.59756   -893.61065            0   -880.69543    5603.5956     13.45396    13.353653    13.253679    3.0389408    62.638612    29.476994 
   85000    814.82104   -894.51031            0   -881.02885     4975.284     13.45396    13.353653    13.253679    1.8404259    64.479317    27.633993 
   86000    781.48029   -894.10118            0   -881.17135    9070.7946     13.45396    13.353653    13.253679    3.7751553    66.318126    25.790383 
   87000    783.35207   -892.75489            0   -879.79409    6877.8855     13.45396    13.353653    13.253679    2.1071977    68.156795    23.946982 
   88000     834.2307   -894.27197            0   -880.46937    5321.3262     13.45396    13.353653    13.253679    2.3013365    69.997838    22.104581 
   89000    714.31422   -894.14997            0   -882.33143     5442.077     13.45396    13.353653    13.253679    2.2825176    71.837513    20.261863 
   90000    813.73948   -893.86968            0   -880.40612    9249.4501     13.45396    13.353653    13.253679     2.434235    73.690406    18.422601 
   91000    883.06849   -895.24229            0   -880.63166    7381.6785     13.45396    13.353653    13.253679    2.3452178    75.528592    16.579447 
   92000    748.87106   -894.41733            0   -882.02703    6150.8174     13.45396    13.353653    13.253679    2.0530659    77.368016    14.736765 
   93000    762.12965   -895.08385            0   -882.47418    5896.6302     13.45396    13.353653    13.253679     2.361498    79.204736    12.893794 
   94000    846.28495    -893.5031            0   -879.50107    6951.9006     13.45396    13.353653    13.253679    3.4070812    81.044528    11.051527 
   95000     768.6216   -895.08684            0   -882.36977    3561.9794     13.45396    13.353653    13.253679    1.9663816    82.885442    9.2094937 
   96000    752.47794   -894.87515            0   -882.42518    4198.5667     13.45396    13.353653    13.253679    1.9661788    84.725456     7.367431 
   97000    749.79051   -892.79688            0   -880.39137     7372.398     13.45396    13.353653    13.253679    2.3426826    86.571634     5.525849 
   98000     806.6684   -894.93003            0   -881.58346    3496.8934     13.45396    13.353653    13.253679    2.2544375    88.411682    3.6838201 
   99000    757.32742   -895.21071            0    -882.6805    6135.6586     13.45396    13.353653    13.253679      2.02882    90.253375    1.8419056 
  100000    849.29299   -894.24759            0   -880.19579    8136.0699     13.45396    13.353653    13.253679    2.4174998    92.092436            0 
Loop time of 92.0924 on 1 procs for 50000 steps with 129 atoms

Performance: 46.909 ns/day, 0.512 hours/ns, 542.933 timesteps/s
99.9% CPU use with 1 MPI tasks x no OpenMP threads

MPI task timing breakdown:
Section |  min time  |  avg time  |  max time  |%varavg| %total
---------------------------------------------------------------
Pair    | 61.899     | 61.899     | 61.899     |   0.0 | 67.21
Kspace  | 28.352     | 28.352     | 28.352     |   0.0 | 30.79
Neigh   | 0.71955    | 0.71955    | 0.71955    |   0.0 |  0.78
Comm    | 0.81553    | 0.81553    | 0.81553    |   0.0 |  0.89
Output  | 0.00097442 | 0.00097442 | 0.00097442 |   0.0 |  0.00
Modify  | 0.14537    | 0.14537    | 0.14537    |   0.0 |  0.16
Other   |            | 0.1606     |            |       |  0.17

Nlocal:        129.000 ave         129 max         129 min
Histogram: 1 0 0 0 0 0 0 0 0 0
Nghost:        3826.00 ave        3826 max        3826 min
Histogram: 1 0 0 0 0 0 0 0 0 0
Neighs:        40197.0 ave       40197 max       40197 min
Histogram: 1 0 0 0 0 0 0 0 0 0

Total # of neighbors = 40197
Ave neighs/atom = 311.60465
Neighbor list builds = 702
Dangerous builds = 0

# Stage 2: main_nvt_simulation
unfix int
dump     atom_info all custom 1000 main_nvt_simulation-trajectory.lammpstrj element x y z q id type vx vy vz
dump_modify     atom_info append yes
dump_modify     atom_info sort id
dump_modify     atom_info element Na Cl O
restart         0
fix             int all nvt temp 800 800 0.5
run             2000000
PPPM initialization ...
  using 12-bit tables for long-range coulomb (../kspace.cpp:339)
  G vector (1/distance) = 0.27856857
  grid = 15 15 15
  stencil order = 5
  estimated absolute RMS force accuracy = 5.9523024e-05
  estimated relative force accuracy = 4.1336453e-06
  using double precision KISS FFT
  3d grid and FFT values/proc = 10648 3375
Per MPI rank memory allocation (min/avg/max) = 5.671 | 5.671 | 5.671 Mbytes
Step Temp E_pair E_mol TotEng Press Lx Ly Lz Fmax CPU CPULeft 
  100000    849.29299   -894.24759            0   -880.19579    8136.0699     13.45396    13.353653    13.253679    2.4174998            0            0 
  101000    775.33983   -895.39629            0   -882.56806    1702.8417     13.45396    13.353653    13.253679     1.865958     1.855943    3710.0319 
  102000    768.89162   -895.14679            0   -882.42525    4680.4359     13.45396    13.353653    13.253679    2.0173586    3.7113688    3707.6586 
  103000    804.88895   -894.05779            0   -880.74066    9074.0625     13.45396    13.353653    13.253679    2.3955932    5.5647099    3704.2425 
  104000    751.41353   -893.77308            0   -881.34072    6417.0895     13.45396    13.353653    13.253679    3.0687646     7.419358    3702.2596 
  105000    777.62579   -895.72905            0     -882.863    2028.4866     13.45396    13.353653    13.253679    2.2006005     9.274904    3700.6871 
  106000    856.35567   -893.91486            0    -879.7462    7465.5633     13.45396    13.353653    13.253679    2.2469543    11.129721    3698.7776 
  107000    801.04292   -894.18587            0   -880.93238    3088.0779     13.45396    13.353653    13.253679    2.0548403    12.982409    3696.2773 
  108000    788.73101   -895.64119            0    -882.5914    3429.0102     13.45396    13.353653    13.253679    2.5597226    14.840001    3695.1602 
  109000    884.32004   -892.28536            0   -877.65402    6245.7477     13.45396    13.353653    13.253679    2.5360655    16.696788    3693.7007 
  110000    814.61794   -894.77303            0   -881.29493    6258.0003     13.45396    13.353653    13.253679     2.029471    18.551809    3691.8101 
  111000    758.34331   -894.82469            0   -882.27767    6176.2261     13.45396    13.353653    13.253679    2.1614606    20.404131    3689.4379 
  112000    828.24916   -893.09225            0   -879.38862    6941.7519     13.45396    13.353653    13.253679    2.2618882    22.258466     3687.486 
  113000    765.07591   -895.36313            0   -882.70472    1512.5886     13.45396    13.353653    13.253679    2.1215551    24.109759    3685.0839 
  114000    768.98061   -894.45929            0   -881.73628    7300.2892     13.45396    13.353653    13.253679    1.8893166    25.961522    3682.8275 
  115000    854.12446   -894.03866            0   -879.90692    7377.6146     13.45396    13.353653    13.253679    2.2428704    27.815667    3680.9399 
  116000    733.45449   -895.56283            0   -883.42761    3277.9999     13.45396    13.353653    13.253679    4.4046275    29.738638    3687.5912 
  117000    772.57216   -894.39586            0   -881.61342    4349.5833     13.45396    13.353653    13.253679    2.2698096    31.601014    3686.1653 
  118000    790.01374   -893.62572            0   -880.55471    4988.8376     13.45396    13.353653    13.253679    2.2441923    33.459405    3684.2524 
  119000    771.65958   -896.06118            0   -883.29384    3337.6222     13.45396    13.353653    13.253679    1.9819582     35.31864     3682.433 
  120000    752.53262   -894.39046            0   -881.93958    5795.1531     13.45396    13.353653    13.253679    2.2172448    37.177121     3680.535 
  121000    860.01042   -894.77501            0   -880.54588      4993.85     13.45396    13.353653    13.253679     1.754838    39.035618    3678.6424 
  122000    823.59483   -896.35921            0   -882.73259    4362.3726     13.45396    13.353653    13.253679    1.9197081    40.894841    3676.8181 
  123000    728.95662   -894.34206            0   -882.28126    8142.5679     13.45396    13.353653    13.253679    2.3945764    42.752374    3674.8454 
  124000    853.85545   -894.74324            0   -880.61595    8314.1256     13.45396    13.353653    13.253679    2.0314811     44.61204     3673.058 
  125000    821.04306   -895.09295            0   -881.50855    2026.9357     13.45396    13.353653    13.253679    1.8833545    46.465176    3670.7489 
  126000    701.81763   -894.75555            0   -883.14377    4136.7361     13.45396    13.353653    13.253679      2.46363    48.324871    3668.9729 
  127000    858.28324   -893.97527            0   -879.77472     6323.239     13.45396    13.353653    13.253679    2.0593266    50.178544    3666.7507 
  128000    796.96481   -894.71997            0   -881.53395    3686.0854     13.45396    13.353653    13.253679    2.2307257    52.032898    3664.6027 
  129000    743.76462   -896.40826            0   -884.10245    3422.7504     13.45396    13.353653    13.253679    2.2128545    53.885571    3662.3608 
  130000    854.50287   -895.99664            0   -881.85864    5575.4798     13.45396    13.353653    13.253679     2.184828    55.734193    3659.8787 
  131000    877.30533   -894.37808            0    -879.8628    9017.9385     13.45396    13.353653    13.253679    2.0381085    57.592122    3658.0287 
  132000    725.84628   -894.47914            0    -882.4698    3178.0923     13.45396    13.353653    13.253679     1.960113    59.445828    3655.9185 
  133000    730.69776   -893.49396            0   -881.40434    5254.9257     13.45396    13.353653    13.253679    2.4337266    61.306845    3654.2596 
  134000    890.80011   -895.09348            0   -880.35493    6339.9075     13.45396    13.353653    13.253679    2.3033457    63.164947    3652.4202 
  135000    738.31928   -894.15458            0   -881.93886    4681.2953     13.45396    13.353653    13.253679    2.3070067    65.019309    3650.3698 
  136000    840.53287   -894.96402            0   -881.05715    4169.9924     13.45396    13.353653    13.253679    1.9625207    66.871757    3648.2259 
  137000    829.82527   -893.03442            0   -879.30471    8484.9788     13.45396    13.353653    13.253679    2.1617672    68.727197    3646.2565 
  138000    677.76558   -893.71449            0   -882.50065    3275.2885     13.45396    13.353653    13.253679     2.447119    70.581164     3644.217 
  139000    820.29583     -894.717            0   -881.14496    8001.4895     13.45396    13.353653    13.253679    2.0330131    72.438557    3642.3592 
  140000    772.88165   -892.13725            0   -879.34969    6298.0646     13.45396    13.353653    13.253679    2.4985545    74.294248    3640.4182 
  141000    761.28218   -895.39975            0   -882.80411    5535.2663     13.45396    13.353653    13.253679    2.1261955    76.150685    3638.5169 
  142000    804.16624   -894.08076            0   -880.77559    5275.5079     13.45396    13.353653    13.253679    2.4599044    78.006596    3636.5933 
  143000    879.56426   -894.82345            0    -880.2708    5000.8447     13.45396    13.353653    13.253679    2.3030932    79.860914    3634.6002 
  144000    840.06741   -895.09094            0   -881.19177    3553.2168     13.45396    13.353653    13.253679    2.3471993    81.714635     3632.587 
  145000     820.1968   -894.58634            0   -881.01594    4311.4761     13.45396    13.353653    13.253679    2.6871945     83.56877    3630.5988 
  146000    808.23869    -894.2804            0   -880.90785    2807.3095     13.45396    13.353653    13.253679    2.2981731    85.430292    3628.9303 
  147000    838.37432   -894.23064            0   -880.35949    6036.5319     13.45396    13.353653    13.253679    2.5044058    87.285657    3626.9977 
  148000    772.96252   -894.27428            0   -881.48538    9181.1299     13.45396    13.353653    13.253679    2.4886061    89.143791    3625.1809 
  149000    731.86562    -894.9833            0   -882.87436    5032.5051     13.45396    13.353653    13.253679    1.9468147     90.99656    3623.1487 
  150000    790.63723   -892.52755            0   -879.44622    6394.7463     13.45396    13.353653    13.253679    2.3003188    92.862959    3621.6554 
  151000    746.19006   -894.12798            0   -881.78205    5384.9474     13.45396    13.353653    13.253679    2.5286566    94.719418    3619.7676 
  152000    811.95354   -893.82933            0   -880.39532    6539.7378     13.45396    13.353653    13.253679    2.4796778    96.575288    3617.8589 
  153000    884.26219   -893.99781            0   -879.36743    6836.9904     13.45396    13.353653    13.253679    2.3338605    98.431864    3615.9781 
  154000    840.46703   -895.80784            0   -881.90206    6876.1549     13.45396    13.353653    13.253679    2.0772773    100.29137    3614.2038 
  155000     872.0002   -893.90822            0   -879.48072    6262.7155     13.45396    13.353653    13.253679    2.7411818    102.14975    3612.3866 
  156000    902.10463   -893.54773            0   -878.62214    6946.1442     13.45396    13.353653    13.253679    2.7722545     104.0081    3610.5668 
  157000    796.45197   -895.50789            0   -882.33036    1978.4777     13.45396    13.353653    13.253679     2.440472    105.87091    3608.8978 
  158000    854.26067    -894.3956            0    -880.2616    7778.8239     13.45396    13.353653    13.253679    1.9401575    107.72319    3606.8696 
  159000    734.48223    -892.4087            0   -880.25647    8324.4746     13.45396    13.353653    13.253679    2.0397031    109.58018    3605.0022 
  160000    774.27358   -895.39341            0   -882.58283    5482.6034     13.45396    13.353653    13.253679    2.1256419     111.4348    3603.0584 
  161000    827.43127   -893.91662            0   -880.22652     4905.465     13.45396    13.353653    13.253679    2.7894562    113.29083    3601.1626 
  162000     877.2241   -895.23299            0   -880.71905    6164.8058     13.45396    13.353653    13.253679    2.3967113    115.14842    3599.3168 
  163000    817.59715   -894.73767            0   -881.21028    2948.5485     13.45396    13.353653    13.253679     2.167651    117.00579    3597.4636 
  164000    794.25926   -893.81745            0   -880.67619    5191.8392     13.45396    13.353653    13.253679    2.7688551    118.86148    3595.5599 
  165000    891.70406    -893.5539            0   -878.80039    5621.9225     13.45396    13.353653    13.253679    3.5587064    120.71397     3593.562 
  166000    734.25092   -894.16622            0   -882.01782    5594.6197     13.45396    13.353653    13.253679    2.3763871    122.58003    3591.9663 
  167000    783.98248   -893.49143            0    -880.5202    4405.3812     13.45396    13.353653    13.253679    3.0865232    124.43199    3589.9558 
  168000    990.42975   -892.79802            0   -876.41107    6251.6386     13.45396    13.353653    13.253679    1.9501233    126.28708    3588.0388 
  169000    787.87679   -893.74122            0   -880.70556      7006.24     13.45396    13.353653    13.253679    2.9352523    128.13876    3586.0281 
  170000    747.92667   -894.45818            0   -882.08351     6901.899     13.45396    13.353653    13.253679    2.1203433    129.99264    3584.0828 
  171000    817.43891   -892.82888            0   -879.30411    8288.2116     13.45396    13.353653    13.253679    2.5130435    131.84865    3582.1979 
  172000    777.20365   -894.76628            0   -881.90721    4164.3633     13.45396    13.353653    13.253679    2.1186834    133.70637    3580.3595 
  173000    848.90818    -895.7943            0   -881.74886    2971.6273     13.45396    13.353653    13.253679    1.5482709    135.56162    3578.4553 
  174000    816.89348   -893.14092            0   -879.62517    4597.3684     13.45396    13.353653    13.253679    2.5286269    137.41776    3576.5758 
  175000    765.78095   -895.44267            0    -882.7726    1694.4773     13.45396    13.353653    13.253679    2.5096828    139.27396    3574.6984 
  176000    799.76327   -894.43532            0     -881.203     4047.341     13.45396    13.353653    13.253679    2.6379208    141.12779    3572.7615 
  177000    754.45571   -892.84573            0   -880.36304    7997.3027     13.45396    13.353653    13.253679    3.4900621    142.98361    3570.8765 
  178000    809.80001   -894.90416            0   -881.50578     5760.385     13.45396    13.353653    13.253679    2.1113362    144.83795    3568.9557 
  179000    852.41773   -893.83151            0   -879.72801    2495.4669     13.45396    13.353653    13.253679    1.8813401     146.6917    3567.0223 
  180000    782.03444   -892.18765            0   -879.24866    8411.2563     13.45396    13.353653    13.253679    2.8820696    148.55113    3565.2272 
  181000    718.83367   -893.98819            0   -882.09488    5087.2486     13.45396    13.353653    13.253679    2.6870894    150.40613    3563.3255 
  182000    864.68461   -894.19007            0    -879.8836    6401.7814     13.45396    13.353653    13.253679    2.4943612     152.2628    3561.4641 
  183000    873.45108   -894.21755            0   -879.76604    2538.2867     13.45396    13.353653    13.253679    1.8640289    154.12746    3559.7873 
  184000    744.00868    -893.4652            0   -881.15536    8535.7532     13.45396    13.353653    13.253679    2.4610744     155.9848    3557.9391 
  185000    826.24991   -894.61501            0   -880.94446     5251.111     13.45396    13.353653    13.253679     1.967204    157.84013    3556.0454 
  186000    908.22596   -894.90974            0   -879.88287    4391.3591     13.45396    13.353653    13.253679    2.4127077    159.69207    3554.0769 
  187000    840.43578    -895.5224            0   -881.61714     2784.452     13.45396    13.353653    13.253679    2.2691242     161.5502    3552.2476 
  188000    757.85797   -894.74107            0   -882.20208     6489.479     13.45396    13.353653    13.253679    2.6681625    163.40723    3550.3934 
  189000    858.09084   -893.63508            0   -879.43771    8448.6638     13.45396    13.353653    13.253679    2.1952626    165.26467    3548.5482 
  190000    781.97981   -894.86456            0   -881.92647    7179.7349     13.45396    13.353653    13.253679    2.3655995      167.128    3546.8276 
  191000     802.3447   -893.26075            0   -879.98571    6709.2465     13.45396    13.353653    13.253679    3.1288433    168.98427    3544.9558 
  192000     757.7636   -892.23661            0   -879.69918    5346.3115     13.45396    13.353653    13.253679    2.1915412    170.84286    3543.1324 
  193000    738.50921   -893.96102            0   -881.74216    8352.4396     13.45396    13.353653    13.253679    3.5912971    172.69866     3541.251 
  194000     883.8566   -894.43752            0   -879.81385    6411.1375     13.45396    13.353653    13.253679    3.0250284    174.55472    3539.3754 
  195000    952.89048   -894.19195            0   -878.42609    4830.6886     13.45396    13.353653    13.253679    2.2910252    176.41789    3537.6429 
  196000    771.52283   -893.92434            0   -881.15926    5179.4784     13.45396    13.353653    13.253679    2.6053365    178.27333    3535.7545 
  197000    801.86311   -894.71794            0   -881.45088    6140.2735     13.45396    13.353653    13.253679    2.5757518    180.12467     3533.786 
  198000    873.65817   -892.98569            0   -878.53076    6206.7978     13.45396    13.353653    13.253679    2.3637053    181.97983    3531.8943 
  199000    819.74857   -895.14578            0   -881.58279    3020.8027     13.45396    13.353653    13.253679    2.4066936      183.832    3529.9457 
  200000    827.00825   -894.50611            0   -880.82301    5163.5306     13.45396    13.353653    13.253679    2.5960734    185.68447     3528.005 
  201000    890.51627   -892.31069            0   -877.57683    6758.6185     13.45396    13.353653    13.253679     3.006301    187.53938    3526.1118 
  202000    794.57209   -893.88775            0   -880.74132    5587.6612     13.45396    13.353653    13.253679    2.2547088    189.39675     3524.265 
  203000    764.40561   -894.12576            0   -881.47844    5731.7801     13.45396    13.353653    13.253679    2.1098459    191.25301    3522.3976 
  204000    903.83616   -893.58467            0   -878.63043    7635.3383     13.45396    13.353653    13.253679    2.3642344    193.10754     3520.499 
  205000    789.64266   -894.71107            0   -881.64619    5556.8194     13.45396    13.353653    13.253679    2.5544875    194.96608    3518.6736 
  206000      817.074   -894.72402            0   -881.20529    6137.8674     13.45396    13.353653    13.253679    2.2050524    196.82159    3516.7934 
  207000    855.04439   -892.88819            0   -878.74122    6554.2104     13.45396    13.353653    13.253679    2.4990951     198.6762    3514.8977 
  208000    759.05009   -894.67302            0    -882.1143    6031.2036     13.45396    13.353653    13.253679    1.9015141    200.53029    3512.9935 
  209000    835.04834      -894.84            0   -881.02387     4983.166     13.45396    13.353653    13.253679    2.3877574    202.38694    3511.1349 
  210000    811.35857   -892.93736            0   -879.51319    8964.8921     13.45396    13.353653    13.253679    2.2260172    204.24292    3509.2648 
  211000    795.34574   -896.41069            0   -883.25146    346.01867     13.45396    13.353653    13.253679    1.9913938    206.09759    3507.3725 
  212000    816.84758   -893.89885            0   -880.38387    6842.4787     13.45396    13.353653    13.253679    1.4546495    207.95427    3505.5148 
  213000    773.20405   -893.44906            0   -880.65617    6934.2864     13.45396    13.353653    13.253679    2.6835796     209.8121    3503.6764 
  214000    696.20365   -894.70019            0    -883.1813    4984.0059     13.45396    13.353653    13.253679    2.1770547    211.66542     3501.763 
  215000    839.65633   -894.77363            0   -880.88126    4681.6512     13.45396    13.353653    13.253679    2.6474495    213.52127    3499.8921 
  216000    860.77288   -894.63151            0   -880.38977    7178.3013     13.45396    13.353653    13.253679    2.2392914     215.3761     3498.005 
  217000    750.31932   -895.83321            0   -883.41895    4380.1768     13.45396    13.353653    13.253679    2.0699063    217.23664    3496.2103 
  218000     887.0084    -895.3374            0   -880.66158    5457.2814     13.45396    13.353653    13.253679    1.8992132    219.09723    3494.4152 
  219000    814.49499   -894.22134            0   -880.74528     3364.768     13.45396    13.353653    13.253679    2.4138221    220.95673    3492.6018 
  220000    681.07305   -895.20725            0    -883.9387    1779.3312     13.45396    13.353653    13.253679    2.5378901    222.81592    3490.7828 
  221000    797.74169   -894.60584            0   -881.40697    5175.0745     13.45396    13.353653    13.253679     2.320709      224.676    3488.9768 
  222000    816.56795   -894.01005            0   -880.49969    5633.2965     13.45396    13.353653    13.253679    2.2948958    226.53908    3487.2163 
  223000    803.34931   -895.04674            0   -881.75509    6829.4191     13.45396    13.353653    13.253679    2.4676634    228.38938     3485.259 
  224000    695.43362   -894.49346            0    -882.9873    5692.3184     13.45396    13.353653    13.253679    3.3789833    230.24406    3483.3699 
  225000    813.97524    -893.0849            0   -879.61744    8338.9136     13.45396    13.353653    13.253679    2.4705321    232.10176    3481.5265 
  226000    763.96893   -894.57332            0   -881.93323    4379.9608     13.45396    13.353653    13.253679    2.5889763    233.95917    3479.6784 
  227000    814.64859   -894.92701            0    -881.4484    5388.5417     13.45396    13.353653    13.253679    2.2964597    235.81612    3477.8236 
  228000    889.38451   -894.24269            0   -879.52755     4885.417     13.45396    13.353653    13.253679    1.9300736     237.6757    3476.0072 
  229000    777.66941   -895.07753            0   -882.21076     2394.519     13.45396    13.353653    13.253679    1.9692597    239.54122    3474.2761 
  230000    864.25363   -893.43983            0    -879.1405     7863.035     13.45396    13.353653    13.253679    1.9468335    241.40354    3472.4971 
  231000     845.6291   -893.76144            0   -879.77026    7595.8977     13.45396    13.353653    13.253679     2.146629    243.26802    3470.7476 
  232000    762.80868   -894.42493            0   -881.80403     5425.552     13.45396    13.353653    13.253679    2.5439041    245.12865    3468.9418 
  233000    890.68969   -893.35799            0   -878.62126      6971.49     13.45396    13.353653    13.253679    2.3481886    246.98921    3467.1343 
  234000     787.6242   -892.74741            0   -879.71594     9218.189     13.45396    13.353653    13.253679    3.7162599    248.85195    3465.3563 
  235000    759.96832    -893.9303            0   -881.35639    6332.1393     13.45396    13.353653    13.253679    2.1698163    250.71351    3463.5607 
  236000       769.67   -894.17039            0   -881.43597    5895.8652     13.45396    13.353653    13.253679    2.8766612    252.57557     3461.771 
  237000    804.36714   -892.45532            0   -879.14682    8517.3855     13.45396    13.353653    13.253679    2.4435147    254.43995    3460.0119 
  238000    778.92706   -895.14518            0    -882.2576    4973.5181     13.45396    13.353653    13.253679    2.8174131    256.30118    3458.2087 
  239000    810.20995   -894.92632            0   -881.52116     3474.968     13.45396    13.353653    13.253679    2.0200775    258.16249    3456.4057 
  240000    818.69799   -894.17591            0   -880.63031    7365.7991     13.45396    13.353653    13.253679    2.3786864    260.02491    3454.6167 
  241000    792.06109   -894.17751            0   -881.07262    7798.0259     13.45396    13.353653    13.253679    2.3858897    261.88836    3452.8401 
  242000    781.89357   -894.38202            0   -881.44536    2840.9222     13.45396    13.353653    13.253679    2.5239921    263.75023    3451.0418 
  243000    772.97198   -893.44323            0   -880.65418    5502.4462     13.45396    13.353653    13.253679    1.9628092    265.61013    3449.2169 
  244000    870.69311   -894.00211            0   -879.59623    6730.7719     13.45396    13.353653    13.253679    2.3576205    267.47052    3447.3979 
  245000    759.17257   -895.13736            0   -882.57663    5182.7757     13.45396    13.353653    13.253679    3.1702884    269.33367    3445.6135 
  246000    765.20512   -893.50024            0   -880.83969    3188.5228     13.45396    13.353653    13.253679    2.9032992    271.18923    3443.7317 
  247000    772.83234   -892.87301            0   -880.08627    5374.0075     13.45396    13.353653    13.253679    2.0914688    273.04975    3441.9129 
  248000    711.64799   -893.88661            0   -882.11218    5455.8759     13.45396    13.353653    13.253679     2.250156    274.90487    3440.0258 
  249000     765.5212   -893.47178            0   -880.80601    8412.9015     13.45396    13.353653    13.253679    1.8942464    276.75966    3438.1351 
  250000    864.35045   -894.01888            0   -879.71794    6048.0267     13.45396    13.353653    13.253679    1.9981463    278.61727    3436.2796 
  251000    769.60743   -895.07201            0   -882.33863    3987.6625     13.45396    13.353653    13.253679    1.8767313     280.4814    3434.5041 
  252000    763.81425   -893.66496            0   -881.02742    4748.8027     13.45396    13.353653    13.253679    2.7300475    282.33772    3432.6323 
  253000    734.44805   -892.62633            0   -880.47467     5985.473     13.45396    13.353653    13.253679    2.7535555    284.19474    3430.7692 
  254000    808.90158   -895.82205            0   -882.43853    5060.7338     13.45396    13.353653    13.253679    1.9642534    286.05288    3428.9196 
  255000    856.05546   -894.55058            0   -880.38688    4923.7112     13.45396    13.353653    13.253679    2.4672111    287.90728    3427.0254 
  256000    776.63905   -892.89635            0   -880.04663    6137.2261     13.45396    13.353653    13.253679    2.6445808    289.76357     3425.154 
  257000    697.48227   -894.66195            0    -883.1219    4039.5822     13.45396    13.353653    13.253679    1.9390211    291.61854    3423.2674 
  258000    836.46803   -894.41939            0   -880.57978    5156.4328     13.45396    13.353653    13.253679    2.2444402    293.47399    3421.3866 
  259000    783.60172   -893.22403            0   -880.25911    3437.1852     13.45396    13.353653    13.253679    1.6904692    295.33264    3419.5434 
  260000    732.35302   -895.67003            0   -883.55303    2524.7261     13.45396    13.353653    13.253679     2.617832    297.18795    3417.6614 
  261000     801.8368   -894.10056            0   -880.83393    4030.7197     13.45396    13.353653    13.253679    2.3598019    299.06138    3415.9868 
  262000    744.35968     -893.252            0   -880.93635    5185.3655     13.45396    13.353653    13.253679    2.4039257    300.92447    3414.1925 
  263000    718.19593   -896.00483            0   -884.12207    1097.6554     13.45396    13.353653    13.253679    1.8155234    302.78528    3412.3715 
  264000    792.74895   -894.48077            0    -881.3645    6030.4467     13.45396    13.353653    13.253679    1.9373722    304.64403    3410.5271 
  265000    775.37658   -893.14554            0   -880.31671    4674.0141     13.45396    13.353653    13.253679    2.4714766    306.50406    3408.6967 
  266000    728.64256   -894.28871            0    -882.2331    5001.1554     13.45396    13.353653    13.253679    2.7416634    308.36364    3406.8609 
  267000    749.07751   -894.27876            0   -881.88505    5592.6183     13.45396    13.353653    13.253679    2.4795334    310.22404     3405.034 
  268000    805.71202   -893.44725            0    -880.1165    8723.5984     13.45396    13.353653    13.253679    3.3281377     312.0868    3403.2323 
  269000    756.79201   -894.95505            0    -882.4337    3185.1868     13.45396    13.353653    13.253679    2.1321426    313.94941    3401.4282 
  270000    683.44399   -894.12421            0   -882.81643    6058.9874     13.45396    13.353653    13.253679    2.6639485     315.8033    3399.5296 
  271000    831.09055   -893.45986            0   -879.70922    7517.3593     13.45396    13.353653    13.253679    3.0682364    317.66188    3397.6818 
  272000    759.40532   -894.76181            0   -882.19722    4275.8031     13.45396    13.353653    13.253679    2.2167448    319.51775    3395.8049 
  273000    774.26827   -894.29487            0   -881.48437    6285.3642     13.45396    13.353653    13.253679    2.4278419     321.3768     3393.962 
  274000    820.54442   -893.38815            0     -879.812    4163.3714     13.45396    13.353653    13.253679    2.8018926    323.23358    3392.0949 
  275000    770.21468   -895.04473            0    -882.3013    4517.6673     13.45396    13.353653    13.253679    2.2421568    325.08939    3390.2179 
  276000    873.14669   -893.57918            0    -879.1327     6166.273     13.45396    13.353653    13.253679    2.1206013    326.94356    3388.3242 
  277000    828.56145   -893.83357            0   -880.12477    7049.0323     13.45396    13.353653    13.253679    3.2285713    328.80279     3386.483 
  278000    779.25647   -894.32168            0   -881.42865    7634.0161     13.45396    13.353653    13.253679    1.6175616    330.65633    3384.5833 
  279000    860.33259   -894.98723            0   -880.75277     5590.959     13.45396    13.353653    13.253679    2.6888925    332.51468    3382.7332 
  280000     843.9794   -892.40129            0    -878.4374    9330.6566     13.45396    13.353653    13.253679    2.7065528    334.37635    3380.9164 
  281000    731.57733   -893.79973            0   -881.69556    5293.2765     13.45396    13.353653    13.253679     1.971166    336.23937    3379.1128 
  282000    882.44917   -895.15253            0   -880.55215    4674.4988     13.45396    13.353653    13.253679    2.5527621    338.09848    3377.2694 
  283000    860.70526   -892.83511            0   -878.59448    7753.1384     13.45396    13.353653    13.253679    2.5437124    339.95946    3375.4445 
  284000    725.75198   -892.62451            0   -880.61673    6075.7811     13.45396    13.353653    13.253679    2.4568751    341.82177    3373.6323 
  285000    797.57335   -894.54343            0   -881.34734    4640.1491     13.45396    13.353653    13.253679    1.7950382    343.68396    3371.8183 
  286000     801.2607   -894.74242            0   -881.48533    5532.6848     13.45396    13.353653    13.253679    2.1215754    345.54383    3369.9812 
  287000     830.9163   -892.97979            0   -879.23203     8103.115     13.45396    13.353653    13.253679    2.3919832    347.40411    3368.1479 
  288000    755.78463   -894.22161            0   -881.71692    8122.3375     13.45396    13.353653    13.253679    2.5701873    349.26451    3366.3154 
  289000    828.48088   -895.47644            0   -881.76898    6308.8189     13.45396    13.353653    13.253679    1.9361589    351.12544    3364.4877 
  290000    870.70896   -894.01946            0   -879.61332    9104.8204     13.45396    13.353653    13.253679    2.2097328    352.98484    3362.6451 
  291000    735.81757   -895.54808            0   -883.37376    3084.6069     13.45396    13.353653    13.253679    2.6100256    354.84603    3360.8192 
  292000    788.51589   -893.80762            0   -880.76139    1740.2255     13.45396    13.353653    13.253679     1.888225    356.70882    3359.0081 
  293000    856.35165   -894.50735            0   -880.33875    7046.5996     13.45396    13.353653    13.253679    2.5545982    358.56947    3357.1763 
  294000    715.67904   -895.47571            0   -883.63458    5552.4996     13.45396    13.353653    13.253679    3.1736323    360.42604    3355.3063 
  295000    800.05828   -895.01317            0   -881.77596    2798.6448     13.45396    13.353653    13.253679    2.4632275    362.28245     3353.435 
  296000    878.89289   -894.61294            0    -880.0714    5968.2533     13.45396    13.353653    13.253679    1.9475158    364.14237    3351.5961 
  297000    704.75863   -893.75149            0   -882.09105    4669.0486     13.45396    13.353653    13.253679    1.9295476    365.99715      3349.71 
  298000    728.88356   -894.03542            0   -881.97583     3458.443     13.45396    13.353653    13.253679    2.5242413    367.85251    3347.8294 
  299000    867.93696    -894.2081            0   -879.84782    4939.4523     13.45396    13.353653    13.253679    2.1801919    369.70887    3345.9582 
  300000    796.16493    -894.7001            0   -881.52732    4315.1002     13.45396    13.353653    13.253679    2.4606412    371.56721    3344.1049 
  301000    654.37066   -895.50397            0   -884.67721    5629.8146     13.45396    13.353653    13.253679    1.9342136    373.43022    3342.2934 
  302000    778.69713   -893.93411            0   -881.05034    6726.1365     13.45396    13.353653    13.253679    2.4946364    375.28629    3340.4196 
  303000    858.96149   -894.09727            0   -879.88549    6227.7591     13.45396    13.353653    13.253679    2.4187494    377.14448    3338.5647 
  304000    778.85587     -895.038            0    -882.1516    5368.4142     13.45396    13.353653    13.253679    2.8114583      379.002    3336.7039 
  305000    738.94043   -893.49723            0   -881.27124    6190.6089     13.45396    13.353653    13.253679    2.1617538    380.85858    3334.8349 
  306000    798.95659   -893.04029            0   -879.82132    5300.6026     13.45396    13.353653    13.253679    2.8303301    382.71759    3332.9872 
  307000     727.7655   -894.33392            0   -882.29282    2932.0285     13.45396    13.353653    13.253679    1.8882523    384.57664    3331.1397 
  308000    918.03145   -893.74862            0   -878.55951    6955.1245     13.45396    13.353653    13.253679    2.8149003    386.43478    3329.2842 
  309000    812.44759   -893.93763            0   -880.49544     5935.429     13.45396    13.353653    13.253679    2.9494999    388.28981    3327.4022 
  310000    745.20267   -894.01599            0   -881.68638    7251.8483     13.45396    13.353653    13.253679    2.2188652    390.14899    3325.5557 
  311000    905.06131   -892.89106            0   -877.91655    7381.4205     13.45396    13.353653    13.253679    2.3668888    392.00646    3323.6946 
  312000    780.84018   -893.44792            0   -880.52868    2886.4218     13.45396    13.353653    13.253679    1.7285368    393.86301    3321.8258 
  313000    805.22367   -894.81161            0   -881.48894    2291.1463     13.45396    13.353653    13.253679    2.6170591    395.72516    3320.0041 
  314000    798.30736   -893.28393            0    -880.0757    7566.6086     13.45396    13.353653    13.253679    2.9179964    397.58129    3318.1317 
  315000    775.43573   -892.40952            0   -879.57971    4335.0831     13.45396    13.353653    13.253679    2.5099011    399.43564    3316.2447 
  316000    743.21216   -894.42761            0   -882.13094    4716.7351     13.45396    13.353653    13.253679    1.9534259    401.29167    3314.3719 
  317000    756.21739   -893.07725            0   -880.56541     7404.901     13.45396    13.353653    13.253679    1.9635318    403.14606    3312.4858 
  318000    829.25401   -894.28939            0   -880.56913    6201.0478     13.45396    13.353653    13.253679    2.3056066    405.00646    3310.6492 
  319000    760.03578   -893.75378            0   -881.17876    5895.5689     13.45396    13.353653    13.253679    3.3992414    406.86202    3308.7728 
  320000    735.24788   -894.48796            0   -882.32306    4741.2689     13.45396    13.353653    13.253679    1.8006391    408.71784    3306.8989 
  321000    747.33459   -892.39504            0   -880.03017    8837.4485     13.45396    13.353653    13.253679    2.0361809    410.57382    3305.0264 
  322000    876.23377   -894.75689            0   -880.25934    4049.2585     13.45396    13.353653    13.253679    2.1039714    412.43003    3303.1558 
  323000    755.03025   -895.17118            0   -882.67898    4448.6647     13.45396    13.353653    13.253679     2.227214    414.28762    3301.2964 
  324000    726.11876   -892.64804            0   -880.63418    5246.3638     13.45396    13.353653    13.253679    2.0513587     416.1468    3299.4496 
  325000     851.2307   -893.88232            0   -879.79845    4069.9544     13.45396    13.353653    13.253679    2.7610477    418.00613    3297.6039 
  326000    749.57128   -895.20568            0    -882.8038    4071.0864     13.45396    13.353653    13.253679     3.506668    419.86192    3295.7303 
  327000    762.73034   -892.60327            0   -879.98367    7945.0366     13.45396    13.353653    13.253679    2.9494904    421.71855    3293.8634 
  328000    787.76906   -893.44751            0   -880.41364    7276.6814     13.45396    13.353653    13.253679    2.5220755    423.57496    3291.9948 
  329000    729.04752   -893.96507            0   -881.90276     4230.361     13.45396    13.353653    13.253679    2.5721908    425.43359    3290.1436 
  330000    745.63014   -894.31108            0    -881.9744    2623.4852     13.45396    13.353653    13.253679    2.5273482    427.28942    3288.2708 
  331000    832.00936   -892.98964            0    -879.2238    9858.6122     13.45396    13.353653    13.253679    1.9362558    429.14532    3286.3985 
  332000    779.50654   -895.04655            0   -882.14938     3631.426     13.45396    13.353653    13.253679    2.0939962    431.00027    3284.5193 
  333000    811.97218   -895.02285            0   -881.58853    6961.9154     13.45396    13.353653    13.253679    2.7234008     432.8559    3282.6454 
  334000    900.98887   -895.07483            0    -880.1677    5831.1995     13.45396    13.353653    13.253679    2.2032863    434.71124    3280.7694 
  335000    775.00041    -893.3927            0   -880.57009    6084.6219     13.45396    13.353653    13.253679    2.4372557    436.56581    3278.8879 
  336000    759.04391   -893.13255            0   -880.57394    7035.2547     13.45396    13.353653    13.253679    3.3051651    438.41977     3277.002 
  337000    774.56559   -893.27511            0   -880.45969    6352.2247     13.45396    13.353653    13.253679    2.3494309    440.27319    3275.1124 
  338000    826.18407   -894.70145            0   -881.03199    7334.6653     13.45396    13.353653    13.253679     2.599722    442.13126    3273.2575 
  339000    767.62993   -894.25464            0   -881.55398    4846.0017     13.45396    13.353653    13.253679    3.5625316    443.98726    3271.3873 
  340000    925.46711   -894.36228            0   -879.05015    5826.8963     13.45396    13.353653    13.253679    3.9404696     445.8431    3269.5161 
  341000    771.08319   -894.58044            0   -881.82264    3856.6994     13.45396    13.353653    13.253679    2.3367654    447.70164    3267.6646 
  342000    817.11015   -894.97508            0   -881.45575    6006.7563     13.45396    13.353653    13.253679     3.436925    449.55724    3265.7919 
  343000    792.16209   -892.73571            0   -879.62915      1885.33     13.45396    13.353653    13.253679    2.2455073    451.41596    3263.9417 
  344000    698.39962   -894.89945            0   -883.34422    4368.6315     13.45396    13.353653    13.253679    2.6273725    453.27154     3262.069 
  345000    786.38329   -893.60779            0   -880.59685    4170.3691     13.45396    13.353653    13.253679    2.5885018    455.13404    3260.2459 
  346000    869.55893   -895.03138            0   -880.64427    2874.5397     13.45396    13.353653    13.253679    1.8010531     456.9897    3258.3737 
  347000     657.4465   -895.17567            0   -884.29803    2851.4628     13.45396    13.353653    13.253679    2.3082768    458.84964    3256.5321 
  348000    859.98708   -896.33137            0   -882.10262    4849.7466     13.45396    13.353653    13.253679    2.4122932    460.70322    3254.6454 
  349000    803.92916   -893.38074            0   -880.07949    4986.2843     13.45396    13.353653    13.253679    2.3870058      462.563    3252.8025 
  350000    853.84522    -894.7588            0   -880.63167     5523.942     13.45396    13.353653    13.253679    2.2481633    464.42045    3250.9431 
  351000    734.17022   -894.71448            0   -882.56742    3765.4397     13.45396    13.353653    13.253679    1.7985767    466.27929    3249.0936 
  352000    907.96541   -894.60661            0   -879.58405    6630.1796     13.45396    13.353653    13.253679    2.2927453    468.13904    3247.2502 
  353000    805.46669   -894.10383            0   -880.77714    4871.3878     13.45396    13.353653    13.253679    1.9540365    470.00097    3245.4217 
  354000    726.00349   -895.25655            0   -883.24461    3286.1052     13.45396    13.353653    13.253679    2.8394855     471.8635    3243.5972 
  355000    788.53738   -895.30107            0   -882.25448    3825.0628     13.45396    13.353653    13.253679      2.04635    473.72258    3241.7486 
  356000    804.57122   -893.59855            0   -880.28668    4860.7683     13.45396    13.353653    13.253679    3.0733266    475.58366    3239.9137 
  357000    791.52867   -893.73009            0   -880.63401    4510.8598     13.45396    13.353653    13.253679    1.9298597    477.44731     3238.096 
  358000    760.13805   -895.54662            0    -882.9699    6438.2796     13.45396    13.353653    13.253679    2.2893073    479.30808    3236.2584 
  359000     850.8242   -893.70472            0   -879.62758    3554.4669     13.45396    13.353653    13.253679    1.8465567    481.16459    3234.3921 
  360000    819.71693   -894.41649            0   -880.85403    7572.0114     13.45396    13.353653    13.253679     2.726714    483.02412     3232.546 
  361000    814.67948   -895.60611            0   -882.12699    5278.5778     13.45396    13.353653    13.253679    2.2121987    484.88552    3230.7123 
  362000    913.21508   -893.72288            0   -878.61347    7079.5339     13.45396    13.353653    13.253679    2.9404026    486.74466    3228.8635 
  363000    795.03606   -894.86585            0   -881.71174    4837.1391     13.45396    13.353653    13.253679    2.0590395    488.60654    3227.0325 
  364000      742.204   -893.51455            0   -881.23456    4533.7766     13.45396    13.353653    13.253679    2.2398895    490.46709    3225.1927 
  365000    887.32166   -892.42235            0   -877.74134    7821.3564     13.45396    13.353653    13.253679     3.104615    492.32913    3223.3624 
  366000    812.90224   -893.55842            0   -880.10871    8932.8986     13.45396    13.353653    13.253679    2.4149551    494.19152    3221.5342 
  367000     718.0717    -894.0904            0   -882.20969    4944.3679     13.45396    13.353653    13.253679    3.4986388    496.05225    3219.6949 
  368000    844.70914   -893.09678            0   -879.12081    6008.4666     13.45396    13.353653    13.253679    2.3249731     497.9089    3217.8292 
  369000    783.98643   -893.10344            0   -880.13215    9595.5385     13.45396    13.353653    13.253679    2.3823167    499.76709    3215.9734 
  370000    813.26879   -894.49141            0   -881.03564    7142.3021     13.45396    13.353653    13.253679    2.0215647    501.62987    3214.1469 
  371000     780.7017    -892.6504            0   -879.73346    8324.6389     13.45396    13.353653    13.253679    2.3422348    503.48737    3212.2866 
  372000    869.32684   -893.00643            0   -878.62316    4741.0459     13.45396    13.353653    13.253679    2.2843077    505.34734     3210.442 
  373000    834.58155    -894.8999            0    -881.0915    4932.7729     13.45396    13.353653    13.253679    2.0330141    507.20405    3208.5765 
  374000    801.72207   -893.60404            0   -880.33931    6368.4321     13.45396    13.353653    13.253679    2.1018339    509.06648    3206.7473 
  375000    915.64813   -893.30393            0   -878.15426    7807.1412     13.45396    13.353653    13.253679    2.4666189    510.92272    3204.8789 
  376000      733.684   -893.91028            0   -881.77126    5390.5482     13.45396    13.353653    13.253679    2.7600366    512.78389    3203.0414 
  377000    875.34084   -894.99339            0   -880.51061    5000.9234     13.45396    13.353653    13.253679    2.6501358    514.64404    3201.1974 
  378000    893.00635   -892.54662            0   -877.77156    8093.6445     13.45396    13.353653    13.253679    2.8313577    516.50639    3199.3669 
  379000    775.34354   -894.79082            0   -881.96253    2509.9069     13.45396    13.353653    13.253679    1.9396311    518.36742    3197.5281 
  380000    831.92035   -894.28413            0   -880.51976    3315.5812     13.45396    13.353653    13.253679     2.199855    520.22708    3195.6807 
  381000    753.10148    -891.9464            0   -879.48612    7676.9673     13.45396    13.353653    13.253679    2.3723585    522.08969    3193.8512 
  382000    741.20191   -894.76115            0   -882.49774    1942.8589     13.45396    13.353653    13.253679    2.2825453    523.95047    3192.0103 
  383000    871.79917   -894.18489            0   -879.76071    3868.0377     13.45396    13.353653    13.253679    2.2032391    525.80924    3190.1571 
  384000    845.90707   -895.13007            0   -881.13429    5983.0246     13.45396    13.353653    13.253679    1.9969225    527.66236    3188.2697 
  385000    753.65225   -896.43122            0   -883.96182     3448.304     13.45396    13.353653    13.253679    1.8791294    529.51641    3186.3882 
  386000    741.68648   -893.09017            0   -880.81875    8855.6706     13.45396    13.353653    13.253679    2.0823581    531.37589    3184.5394 
  387000    889.20073   -894.97918            0   -880.26709    4373.9507     13.45396    13.353653    13.253679    2.6968444    533.23753    3182.7035 
  388000    674.50193   -894.44992            0   -883.29008    3063.0484     13.45396    13.353653    13.253679    2.7205682    535.10729    3180.9156 
  389000    753.02593   -893.50353            0   -881.04449    4183.3743     13.45396    13.353653    13.253679    2.9365418    536.96464    3179.0537 
  390000    779.11798   -893.13102            0   -880.24028    7045.5643     13.45396    13.353653    13.253679    2.9100017    538.82398    3177.2035 
  391000    791.32956   -894.01606            0   -880.92328    10697.636     13.45396    13.353653    13.253679    3.0570036    540.68188    3175.3448 
  392000    760.10416   -894.97395            0    -882.3978    7485.6466     13.45396    13.353653    13.253679    2.3587569    542.53947    3173.4843 
  393000    876.04423   -893.60738            0   -879.11297    6614.7044     13.45396    13.353653    13.253679    3.2737048    544.39594    3171.6173 
  394000    812.44432    -894.2974            0   -880.85527    7671.1859     13.45396    13.353653    13.253679     2.008031    546.25387    3169.7589 
  395000      788.479   -894.23335            0   -881.18773    4457.8697     13.45396    13.353653    13.253679    1.9082007    548.10892    3167.8837 
  396000    786.15488   -892.99782            0   -879.99065    5541.6303     13.45396    13.353653    13.253679    2.0028667    549.97588    3166.0774 
  397000    911.53972   -893.34569            0     -878.264     4471.717     13.45396    13.353653    13.253679    2.5137492    551.83453    3164.2229 
  398000    855.82555   -895.54129            0    -881.3814    5665.1394     13.45396    13.353653    13.253679    2.3207835    553.69042    3162.3527 
  399000    814.34074   -894.23467            0   -880.76116    2672.2755     13.45396    13.353653    13.253679    2.1202438    555.54495    3160.4748 
  400000     942.6863   -894.18847            0   -878.59144    4537.5948     13.45396    13.353653    13.253679    2.7141376    557.40228    3158.6129 
  401000    755.57778   -894.36599            0   -881.86473    3671.3027     13.45396    13.353653    13.253679    2.1640054    559.25966    3156.7514 
  402000    916.96837    -895.1629            0   -879.99139    7008.2179     13.45396    13.353653    13.253679    2.2547563    561.11579    3154.8828 
  403000    830.68896   -894.53169            0    -880.7877    7038.0446     13.45396    13.353653    13.253679    2.0888614    562.97177    3153.0135 
  404000    699.60102   -893.94648            0   -882.37137    3478.5393     13.45396    13.353653    13.253679    2.5568764    564.82733     3151.142 
  405000    910.19671   -894.88245            0   -879.82297    5273.6376     13.45396    13.353653    13.253679    3.2086309     566.6803    3149.2561 
  406000     848.8957   -894.85061            0   -880.80538    4453.8438     13.45396    13.353653    13.253679    1.8999066    568.54507    3147.4358 
  407000    799.63715   -894.56508            0   -881.33484    9048.5618     13.45396    13.353653    13.253679    1.9795525    570.39966     3145.559 
  408000    793.12952   -893.48174            0   -880.35917    4807.8797     13.45396    13.353653    13.253679    2.8643783    572.25856    3143.7061 
  409000    824.23669   -893.19508            0   -879.55784    5072.1499     13.45396    13.353653    13.253679    1.9001966    574.11797    3141.8559 
  410000    786.97613   -895.05911            0   -882.03835    5700.0924     13.45396    13.353653    13.253679    2.1387478    575.97378    3139.9861 
  411000    797.73913   -892.96304            0   -879.76421    6449.2558     13.45396    13.353653    13.253679    2.4524803    577.82849    3138.1103 
  412000     835.9876   -892.51623            0   -878.68456    3666.4706     13.45396    13.353653    13.253679    3.5611283    579.68676     3136.254 
  413000    723.01209   -893.96148            0   -881.99903    5463.3522     13.45396    13.353653    13.253679    2.2807445    581.54449    3134.3948 
  414000     798.5226   -893.42382            0   -880.21203    5789.4612     13.45396    13.353653    13.253679    2.7018463     583.4051     3132.551 
  415000    747.47152   -892.86091            0   -880.49377    8871.5164     13.45396    13.353653    13.253679    3.1049978    585.26603    3130.7088 
  416000    769.12444   -895.42092            0   -882.69552    4202.8024     13.45396    13.353653    13.253679    2.2761247    587.12422    3128.8518 
  417000    891.11514    -894.8168            0   -880.07303    5821.8813     13.45396    13.353653    13.253679    2.2863146    588.97886    3126.9761 
  418000    753.45866   -893.44714            0   -880.98094    8176.9912     13.45396    13.353653    13.253679      1.83573    590.83179    3125.0914 
  419000    708.12561   -894.65068            0   -882.93453    2546.4045     13.45396    13.353653    13.253679      1.81299    592.68888    3123.2289 
  420000    746.08249   -894.15585            0    -881.8117    4549.5641     13.45396    13.353653    13.253679    2.0780277    594.54339    3121.3528 
  421000    820.20685   -893.47309            0   -879.90253    8171.6573     13.45396    13.353653    13.253679    2.2792677    596.39968    3119.4862 
  422000    738.64674   -894.65259            0   -882.43146    6052.7046     13.45396    13.353653    13.253679    2.1129345    598.25457    3117.6123 
  423000     764.3987   -893.86017            0   -881.21296     4562.229     13.45396    13.353653    13.253679    2.8573589    600.11088     3115.746 
  424000    815.80948   -893.79763            0   -880.29982    5265.9227     13.45396    13.353653    13.253679    3.5161243    601.96878    3113.8879 
  425000     745.4421   -894.84804            0   -882.51448    7045.0385     13.45396    13.353653    13.253679    2.5432361    603.82339    3112.0128 
  426000    841.41149   -893.00823            0   -879.08683    8245.0984     13.45396    13.353653    13.253679    2.3467793    605.67811    3110.1385 
  427000    842.62537   -894.93533            0   -880.99384    3611.4266     13.45396    13.353653    13.253679    1.8029979    607.53242    3108.2622 
  428000    761.97812   -894.19056            0    -881.5834     7879.183     13.45396    13.353653    13.253679    2.7703702    609.39001    3106.4027 
  429000      789.146    -893.7874            0   -880.73075    6002.4049     13.45396    13.353653    13.253679    2.2697529    611.24612    3104.5358 
  430000    828.42579   -894.56661            0   -880.86006    5823.0421     13.45396    13.353653    13.253679    2.3043483    613.10066    3102.6609 
  431000    726.04987   -893.81376            0   -881.80105    2340.5645     13.45396    13.353653    13.253679    2.1094653    614.95695     3100.795 
  432000    730.89001   -895.00388            0   -882.91109     5609.058     13.45396    13.353653    13.253679    1.8557124    616.81906    3098.9584 
  433000    817.92464   -893.44486            0   -879.91206    7221.6503     13.45396    13.353653    13.253679    2.1313508     618.6739    3097.0852 
  434000     752.2222   -894.20953            0   -881.76379    9422.4684     13.45396    13.353653    13.253679    2.3127789    620.52995    3095.2183 
  435000    661.92876   -895.93753            0   -884.98572    1182.3087     13.45396    13.353653    13.253679    2.1085427    622.38761    3093.3593 
  436000    779.20617   -893.54597            0   -880.65377    5795.9732     13.45396    13.353653    13.253679    2.5305069    624.24294    3091.4889 
  437000    880.13717   -895.19816            0   -880.63603    5108.7448     13.45396    13.353653    13.253679    2.1134687    626.09861    3089.6202 
  438000    803.68263   -896.20216            0   -882.90499    4552.0899     13.45396    13.353653    13.253679     1.830966     627.9534    3087.7472 
  439000    886.16464   -894.05858            0   -879.39672    7691.3607     13.45396    13.353653    13.253679    2.1031593    629.81007    3085.8836 
  440000    805.30567   -894.53785            0   -881.21383    4236.8548     13.45396    13.353653    13.253679     2.497414    631.66659    3084.0192 
  441000    745.52676   -894.34659            0   -882.01162    3398.6807     13.45396    13.353653    13.253679    2.3970459    633.52683    3082.1731 
  442000    835.64336   -894.89859            0   -881.07262    6127.4566     13.45396    13.353653    13.253679    2.4269368    635.38773      3080.33 
  443000    787.30596   -893.44657            0   -880.42036    5776.3141     13.45396    13.353653    13.253679    2.6869268     637.2481    3078.4843 
  444000    862.80484   -894.90514            0   -880.62978    4495.3236     13.45396    13.353653    13.253679    2.1875457    639.10129    3076.6039 
  445000     735.7155   -894.77225            0   -882.59962    3728.2227     13.45396    13.353653    13.253679    2.1284968    640.95625    3074.7322 
  446000    934.35914   -894.79655            0    -879.3373    5392.3995     13.45396    13.353653    13.253679    2.8370014    642.81167    3072.8627 
  447000    824.83795   -894.43272            0   -880.78553    4864.0586     13.45396    13.353653    13.253679    2.2348928    644.66869     3071.001 
  448000    707.05405    -893.2896            0   -881.59118    6019.4615     13.45396    13.353653    13.253679    2.1588419    646.52525    3069.1371 
  449000     866.3883   -894.62425            0   -880.28959    4955.8157     13.45396    13.353653    13.253679    1.9819378     648.3841    3067.2841 
  450000    822.49061   -891.39181            0   -877.78345    11086.218     13.45396    13.353653    13.253679    1.9645286     650.2374    3065.4049 
  451000     768.9369   -893.55638            0   -880.83409    8296.8077     13.45396    13.353653    13.253679    2.1584353     652.0921    3063.5324 
  452000      758.673   -893.71591            0   -881.16344    4431.5551     13.45396    13.353653    13.253679    2.8550794    653.95017    3061.6758 
  453000    875.20137   -892.21484            0   -877.73437    7768.4315     13.45396    13.353653    13.253679    2.3303992    655.80909    3059.8231 
  454000     751.7499   -893.52834            0   -881.09042    5682.7336     13.45396    13.353653    13.253679    3.0721078    657.66699    3057.9657 
  455000    835.61344   -894.36357            0    -880.5381    6206.0038     13.45396    13.353653    13.253679    2.0125349    659.52471    3056.1075 
  456000    827.43524   -892.56734            0   -878.87718    9230.8508     13.45396    13.353653    13.253679    2.4170442    661.38251    3054.2496 
  457000     750.2081   -894.10368            0   -881.69126    4771.0004     13.45396    13.353653    13.253679    2.2071539    663.23873    3052.3844 
  458000    877.20977   -895.58002            0   -881.06632    5826.4143     13.45396    13.353653    13.253679    2.4014148     665.1003    3050.5438 
  459000    836.04468   -892.96098            0   -879.12837     7508.636     13.45396    13.353653    13.253679    3.1482838    666.95479    3048.6708 
  460000     820.4293   -894.74424            0   -881.16999    2717.7445     13.45396    13.353653    13.253679    2.3837482     668.8094    3046.7984 
  461000    790.96925   -894.63559            0   -881.54877    4149.5637     13.45396    13.353653    13.253679    2.5286089    670.66458    3044.9287 
  462000     804.6274   -891.92219            0   -878.60939    8390.4072     13.45396    13.353653    13.253679    2.0127003     672.5197    3043.0588 
  463000    788.37426   -894.65893            0   -881.61504    4510.9646     13.45396    13.353653    13.253679    2.0782499    674.38042    3041.2142 
  464000    748.13169   -893.53929            0   -881.16123    4286.3314     13.45396    13.353653    13.253679    1.9368773    676.23714    3039.3515 
  465000    815.49289   -893.90472            0   -880.41215    4651.0208     13.45396    13.353653    13.253679    1.9182275    678.09201    3037.4807 
  466000    754.12233   -893.99714            0   -881.51996    5537.2303     13.45396    13.353653    13.253679    2.5246533    679.94595    3035.6057 
  467000    765.19127   -895.22028            0   -882.55996    5376.0091     13.45396    13.353653    13.253679    2.1079805     681.8012    3033.7367 
  468000    885.44945   -894.44976            0   -879.79973    5806.8396     13.45396    13.353653    13.253679    2.1575423    683.65747    3031.8723 
  469000    728.68043   -894.19323            0     -882.137    5619.0183     13.45396    13.353653    13.253679    2.9045956    685.52268    3030.0474 
  470000    744.23598    -895.0124            0   -882.69879    4504.0917     13.45396    13.353653    13.253679    1.9817327    687.37832    3028.1802 
  471000     744.6179   -893.23673            0    -880.9168    7549.2587     13.45396    13.353653    13.253679    2.3289328    689.23449    3026.3153 
  472000    840.70394   -893.50196            0   -879.59226    7494.3277     13.45396    13.353653    13.253679     2.806805    691.09085    3024.4514 
  473000     781.4915   -895.67821            0    -882.7482    2738.0774     13.45396    13.353653    13.253679    3.0094539    692.94564    3022.5806 
  474000    803.76451   -894.20833            0   -880.90981     6622.824     13.45396    13.353653    13.253679    2.0011855    694.80294    3020.7208 
  475000    804.89858   -893.73812            0   -880.42084     5453.015     13.45396    13.353653    13.253679    2.6302443    696.65868    3018.8543 
  476000    766.70936   -894.65459            0   -881.96915     2488.174     13.45396    13.353653    13.253679    2.2151415    698.52022    3017.0129 
  477000    772.33343   -895.81125            0   -883.03276    5276.3334     13.45396    13.353653    13.253679    2.6689833    700.37243    3015.1312 
  478000    806.64959   -893.38497            0   -880.03871    6794.3569     13.45396    13.353653    13.253679    2.6103424    702.22978    3013.2717 
  479000    743.52735    -894.0214            0   -881.71952    3522.4541     13.45396    13.353653    13.253679    2.1885685    704.08923    3011.4212 
  480000    742.95556   -895.37899            0   -883.08657    4026.3429     13.45396    13.353653    13.253679    2.5162758     705.9493    3009.5733 
  481000    863.27536   -894.00204            0   -879.71889    6188.7776     13.45396    13.353653    13.253679    2.1577055     707.8079    3007.7191 
[...]
 1980000    867.26252   -893.98965            0   -879.64053     5916.855     13.45396    13.353653    13.253679    2.2786652    3493.6535    222.99916 
 1981000    767.90173   -895.25677            0   -882.55161    4150.2755     13.45396    13.353653    13.253679    2.5135369    3495.5073    221.14055 
 1982000     872.3268    -894.1532            0   -879.72029      7796.61     13.45396    13.353653    13.253679    2.1761064    3497.3629    219.28205 
 1983000    820.39005    -893.7109            0    -880.1373    6653.2229     13.45396    13.353653    13.253679    1.9609071    3499.2166    217.42344 
 1984000    712.06323    -893.9251            0   -882.14381     3457.895     13.45396    13.353653    13.253679     2.164664     3501.072    215.56494 
 1985000    846.47721   -892.70322            0     -878.698    7068.1536     13.45396    13.353653    13.253679      2.23017    3502.9272    213.70643 
 1986000    804.75539   -894.14926            0   -880.83435    5578.9817     13.45396    13.353653    13.253679    1.8734269    3504.7888    211.84831 
 1987000    747.57262   -893.86764            0   -881.49883    4932.9849     13.45396    13.353653    13.253679    3.3165929    3506.6418    209.98968 
 1988000    918.42654   -894.99554            0    -879.7999    3255.0145     13.45396    13.353653    13.253679    2.2829971    3508.4952    208.13107 
 1989000    882.66561   -892.98469            0   -878.38072    3029.5858     13.45396    13.353653    13.253679    2.2400551    3510.3583    206.27304 
 1990000    803.28768   -894.34695            0   -881.05632    5518.7421     13.45396    13.353653    13.253679    2.0989271    3512.2125    204.41449 
 1991000    817.39883   -894.42225            0   -880.89814    5813.5733     13.45396    13.353653    13.253679    1.5889956    3514.0674    202.55598 
 1992000    917.45473   -893.69913            0   -878.51957    11442.802     13.45396    13.353653    13.253679    2.6538547     3515.924    200.69757 
 1993000    726.18155   -894.08593            0   -882.07104    6683.6636     13.45396    13.353653    13.253679    2.4010792    3517.7776    198.83899 
 1994000    752.81943    -893.0578            0   -880.60217    4308.2117     13.45396    13.353653    13.253679    2.6282982    3519.6322    196.98047 
 1995000    953.73862   -893.75308            0   -877.97319    7591.4605     13.45396    13.353653    13.253679    2.6222586    3521.4872    195.12198 
 1996000    860.53416   -894.35599            0   -880.11819    8119.2931     13.45396    13.353653    13.253679    2.7576245    3523.3435    193.26357 
 1997000    701.17902   -893.53453            0   -881.93332    3960.2631     13.45396    13.353653    13.253679    2.6513549    3525.2169    191.40609 
 1998000    802.83501   -892.13481            0   -878.85166    5826.4586     13.45396    13.353653    13.253679    2.9009488    3527.0716    189.54758 
 1999000    835.03081   -893.98991            0   -880.17407    6417.9847     13.45396    13.353653    13.253679     2.481685    3528.9367    187.68963 
 2000000    787.22895   -894.16558            0   -881.14064    5740.1001     13.45396    13.353653    13.253679    2.7843366     3530.795    185.83132 
 2001000    737.27284   -893.98992            0   -881.79152    6438.0038     13.45396    13.353653    13.253679    2.3149709    3532.6577    183.97323 
 2002000    872.08652   -894.08833            0    -879.6594    5617.6537     13.45396    13.353653    13.253679    2.0465765    3534.5133    182.11478 
 2003000    797.04221   -894.12432            0   -880.93702    6142.9145     13.45396    13.353653    13.253679    1.5763116    3536.3735    180.25656 
 2004000    834.68464   -895.89713            0   -882.08702    6115.2609     13.45396    13.353653    13.253679    2.0719821    3538.2352    178.39841 
 2005000    847.46639   -894.02005            0   -879.99846    4254.2969     13.45396    13.353653    13.253679    2.1637142    3540.0939    176.54011 
 2006000     797.0239   -893.70775            0   -880.52075    6501.6569     13.45396    13.353653    13.253679      2.35547    3541.9531    174.68184 
 2007000    807.96388   -894.79784            0   -881.42984    4710.3084     13.45396    13.353653    13.253679    2.2916177    3543.8117    172.82354 
 2008000     854.9966    -896.0552            0   -881.90903    4662.2878     13.45396    13.353653    13.253679    2.0711179    3545.6665    170.96505 
 2009000    855.83572   -893.91218            0   -879.75213    6838.8628     13.45396    13.353653    13.253679    2.4208884    3547.5207    169.10654 
 2010000    815.82187   -894.65699            0   -881.15897    4901.9966     13.45396    13.353653    13.253679    2.0055591    3549.3778    167.24817 
 2011000    719.24946   -894.11659            0   -882.21639    8488.5454     13.45396    13.353653    13.253679    2.3336667    3551.2363    165.38986 
 2012000    749.23998   -892.57457            0   -880.17817    9459.4315     13.45396    13.353653    13.253679    2.5634495    3553.0926    163.53146 
 2013000    804.41225    -894.1252            0   -880.81596    3417.2416     13.45396    13.353653    13.253679    2.7862736    3554.9503    161.67312 
 2014000    611.24586   -893.67227            0   -883.55903    6825.7412     13.45396    13.353653    13.253679    2.7991066    3556.8064    159.81471 
 2015000    853.84179   -895.81833            0   -881.69126     7182.225     13.45396    13.353653    13.253679    2.3522707    3558.6695    157.95661 
 2016000    898.59107   -895.23927            0   -880.37181    4989.5147     13.45396    13.353653    13.253679    1.6372177     3560.529    156.09835 
 2017000    726.55332   -893.76105            0   -881.74001    2922.7713     13.45396    13.353653    13.253679    2.1342552     3562.389    154.24011 
 2018000    719.38369   -894.43107            0   -882.52865    4309.2726     13.45396    13.353653    13.253679    2.3544238    3564.2454    152.38171 
 2019000    786.30954   -892.85818            0   -879.84845    6946.3677     13.45396    13.353653    13.253679    2.4627782    3566.1043    150.52342 
 2020000    744.53218   -894.39067            0   -882.07216    4903.0614     13.45396    13.353653    13.253679    2.1486883    3567.9609    148.66504 
 2021000     815.8414   -896.65955            0   -883.16121    2910.1987     13.45396    13.353653    13.253679     1.845768    3569.8187     146.8067 
 2022000    818.83392   -893.19657            0   -879.64872    3771.0624     13.45396    13.353653    13.253679    2.4355045     3571.675    144.94831 
 2023000    725.03512   -893.37388            0   -881.37796    5146.3409     13.45396    13.353653    13.253679    3.6066217    3573.5336    143.09001 
 2024000    730.21445   -894.34836            0   -882.26674     4125.307     13.45396    13.353653    13.253679    2.5895394    3575.3911    141.23166 
 2025000    782.94394   -893.41689            0   -880.46285    4620.4162     13.45396    13.353653    13.253679    2.6726524    3577.2487    139.37332 
 2026000    782.11908    -894.0228            0    -881.0824     4211.826     13.45396    13.353653    13.253679    1.8945966    3579.1054    137.51495 
 2027000    746.30912   -893.68782            0   -881.33991    5846.5632     13.45396    13.353653    13.253679    2.1598941     3580.962    135.65658 
 2028000    857.78206   -893.01501            0   -878.82275    7119.8783     13.45396    13.353653    13.253679    2.4946996      3582.82    133.79826 
 2029000    794.34564   -895.18393            0   -882.04124    6474.8752     13.45396    13.353653    13.253679    2.4145814      3584.68    131.94001 
 2030000    816.43134   -894.60431            0   -881.09621    6386.6498     13.45396    13.353653    13.253679    2.0963182    3586.5361    130.08162 
 2031000    756.21964   -891.93056            0   -879.41868    9592.6799     13.45396    13.353653    13.253679     2.700591    3588.4015    128.22357 
 2032000    696.10936   -894.32295            0   -882.80561    4529.3872     13.45396    13.353653    13.253679    2.2678924    3590.2597    126.36525 
 2033000    687.64839   -891.55896            0   -880.18161    11606.064     13.45396    13.353653    13.253679    2.4760458    3592.1158    124.50686 
 2034000    869.65552   -894.60171            0     -880.213    3638.8118     13.45396    13.353653    13.253679    2.7564897    3593.9754    122.64859 
 2035000    684.28455   -895.32127            0   -883.99958    1984.0725     13.45396    13.353653    13.253679    2.3295868    3595.8328    120.79025 
 2036000    727.31944   -895.54781            0   -883.51409    2883.7154     13.45396    13.353653    13.253679    2.7587009    3597.6904    118.93191 
 2037000    835.12987   -894.06405            0   -880.24657    8143.8265     13.45396    13.353653    13.253679    3.0695892     3599.546    117.07352 
 2038000    778.45954   -893.14866            0   -880.26881    6969.5009     13.45396    13.353653    13.253679     2.535415    3601.4045    115.21521 
 2039000     706.9409   -894.60663            0   -882.91008    1762.1465     13.45396    13.353653    13.253679    2.5130035    3603.2686    113.35708 
 2040000    799.51941   -893.82119            0    -880.5929    5889.2409     13.45396    13.353653    13.253679    2.8245902     3605.128     111.4988 
 2041000    796.07551   -893.93696            0   -880.76566    7371.3588     13.45396    13.353653    13.253679    1.7344475    3606.9836    109.64041 
 2042000    766.87492   -895.52577            0   -882.83759    4279.9687     13.45396    13.353653    13.253679    2.3658744    3608.8398    107.78203 
 2043000    887.05385   -895.45088            0   -880.77431     7975.112     13.45396    13.353653    13.253679    2.1802309    3610.6936    105.92359 
 2044000     814.6922    -893.7574            0   -880.27808    3899.5734     13.45396    13.353653    13.253679      2.14043    3612.5512    104.06526 
 2045000    733.91085   -895.15771            0   -883.01493    5901.9858     13.45396    13.353653    13.253679    2.7720279    3614.4097    102.20696 
 2046000    857.95756   -894.20899            0   -880.01382    5682.8266     13.45396    13.353653    13.253679    3.0482702    3616.2741    100.34882 
 2047000    793.57938   -893.57301            0     -880.443    8228.9045     13.45396    13.353653    13.253679    2.8065881    3618.1294    98.490426 
 2048000    791.08727    -895.3492            0   -882.26042    6480.7576     13.45396    13.353653    13.253679    3.3728858    3619.9851    96.632045 
 2049000     836.6065   -892.19903            0   -878.35713    7530.2602     13.45396    13.353653    13.253679    2.2151064    3621.8418    94.773694 
 2050000    891.12098   -895.03824            0   -880.29438    6867.8752     13.45396    13.353653    13.253679     2.825411       3623.7    92.915385 
 2051000    802.80578    -895.4237            0   -882.14104    6095.9427     13.45396    13.353653    13.253679    2.5072093    3625.5557    91.057011 
 2052000    878.36719   -892.91785            0     -878.385    7953.7554     13.45396    13.353653    13.253679    2.8843211    3627.4108    89.198627 
 2053000    754.10424   -893.05235            0   -880.57547    7934.3599     13.45396    13.353653    13.253679    2.5253814    3629.2708    87.340362 
 2054000     769.9792   -894.28169            0   -881.54215    4796.2406     13.45396    13.353653    13.253679    2.0036458    3631.1282    85.482035 
 2055000    882.82323   -893.12941            0   -878.52284    8538.6889     13.45396    13.353653    13.253679    2.1345571    3632.9854    83.623706 
 2056000    866.74955   -894.12442            0   -879.78379    7619.3577     13.45396    13.353653    13.253679    3.1888743    3634.8504     81.76555 
 2057000    805.79989   -894.58362            0   -881.25142    3883.4949     13.45396    13.353653    13.253679    2.2051915    3636.7066    79.907198 
 2058000    786.93746   -893.52716            0   -880.50705    7063.5428     13.45396    13.353653    13.253679    2.2999862    3638.5624    78.048835 
 2059000    887.33878   -893.67705            0   -878.99576    5910.5064     13.45396    13.353653    13.253679    2.1178111    3640.4181    76.190477 
 2060000    766.75987   -894.75501            0   -882.06874    4430.7859     13.45396    13.353653    13.253679    1.9905586    3642.2871     74.33239 
 2061000     880.8676   -894.96595            0   -880.39173    3801.9311     13.45396    13.353653    13.253679     2.569329    3644.1454    72.474079 
 2062000    882.66698   -890.83857            0   -876.23458    10485.866     13.45396    13.353653    13.253679      2.55037     3646.002    70.615738 
 2063000    890.09423   -894.44401            0   -879.71714    4620.2206     13.45396    13.353653    13.253679    2.3735593    3647.8652     68.75752 
 2064000    735.42477   -894.02774            0   -881.85992    4726.7779     13.45396    13.353653    13.253679    2.4850556    3649.7218    66.899178 
 2065000    807.48302   -893.24764            0   -879.88759    5071.3958     13.45396    13.353653    13.253679    2.3815921    3651.5775    65.040821 
 2066000    800.27992   -892.84299            0   -879.60212    5902.9443     13.45396    13.353653    13.253679    2.1508485    3653.4354    63.182504 
 2067000    731.79011   -892.98255            0   -880.87487    8645.3161     13.45396    13.353653    13.253679    2.2455924    3655.2988     61.32428 
 2068000     810.3273   -893.70834            0   -880.30123    5365.4108     13.45396    13.353653    13.253679    2.3854139    3657.1678    59.466143 
 2069000    844.16379   -893.33157            0   -879.36463    6890.7718     13.45396    13.353653    13.253679    2.7698475    3659.0387    57.608024 
 2070000    715.41537   -894.01059            0   -882.17383    6798.7757     13.45396    13.353653    13.253679    2.7124644    3660.9053    55.749827 
 2071000    779.55173   -891.88208            0   -878.98417    7873.9051     13.45396    13.353653    13.253679    1.7555945    3662.7669    53.891548 
 2072000    780.69773   -892.79607            0   -879.87919    6180.4261     13.45396    13.353653    13.253679    1.8610107    3664.6314    52.033305 
 2073000    781.82716   -894.67619            0   -881.74063    8067.7487     13.45396    13.353653    13.253679    2.2334651     3666.486    50.174923 
 2074000    830.87767   -891.96875            0   -878.22163    6267.0477     13.45396    13.353653    13.253679    2.3301254    3668.3401    48.316537 
 2075000    801.01715    -893.6239            0   -880.37083    6855.2477     13.45396    13.353653    13.253679     3.330008    3670.2076    46.458324 
 2076000    805.63984   -894.49594            0   -881.16639    8171.3627     13.45396    13.353653    13.253679    2.2596885     3672.069    44.600028 
 2077000     838.7267   -891.54806            0   -877.67108    6647.6024     13.45396    13.353653    13.253679    3.1693026    3673.9345    42.741777 
 2078000    915.00684   -894.38124            0   -879.24218    5432.6195     13.45396    13.353653    13.253679    1.7989727    3675.7891    40.883398 
 2079000    801.83303   -894.59128            0   -881.32471    7160.2144     13.45396    13.353653    13.253679    2.5190376    3677.6503    39.025092 
 2080000    767.92675   -894.75603            0   -882.05046    6649.9441     13.45396    13.353653    13.253679    2.0546345    3679.5062    37.166729 
 2081000     858.6629    -893.2433            0   -879.03646    6905.4799     13.45396    13.353653    13.253679    3.2392441    3681.3624    35.308372 
 2082000    800.31766   -895.16271            0   -881.92122    6986.9914     13.45396    13.353653    13.253679    2.2662649    3683.2172    33.450005 
 2083000    800.87808   -894.83559            0   -881.58483    6150.5458     13.45396    13.353653    13.253679    1.7696415    3685.0718     31.59164 
 2084000    806.24747   -893.24882            0   -879.90922    9266.5397     13.45396    13.353653    13.253679     2.184794    3686.9273    29.733285 
 2085000    807.73272    -891.1957            0   -877.83153    9626.2692     13.45396    13.353653    13.253679      2.39752    3688.7851    27.874951 
 2086000    762.94813   -894.19072            0   -881.56752    4469.6031     13.45396    13.353653    13.253679    1.8377015     3690.641    26.016603 
 2087000    769.99224   -893.60672            0   -880.86697    7420.2647     13.45396    13.353653    13.253679    2.6517653    3692.4963    24.158254 
 2088000    845.83445   -892.53136            0   -878.53678    6011.8631     13.45396    13.353653    13.253679    2.9033458    3694.3538    22.299923 
 2089000     807.9464   -895.57717            0   -882.20946    5086.3281     13.45396    13.353653    13.253679    2.3431136    3696.2121    20.441595 
 2090000    899.71192   -894.94622            0   -880.06022    6072.0636     13.45396    13.353653    13.253679     2.463843    3698.0638    18.583235 
 2091000    860.59457   -894.82611            0   -880.58732    6291.1007     13.45396    13.353653    13.253679    2.2079834    3699.9195      16.7249 
 2092000    730.93438   -894.46439            0   -882.37087    3383.5236     13.45396    13.353653    13.253679    2.7376671    3701.7727    14.866557 
 2093000    849.84756   -893.92242            0   -879.86143    4335.5551     13.45396    13.353653    13.253679    3.7997145    3703.6359    13.008254 
 2094000    801.92333    -894.2383            0   -880.97024    6105.9662     13.45396    13.353653    13.253679    2.6960358    3705.5084    11.149975 
 2095000    754.17361    -893.5709            0   -881.09287    7367.3363     13.45396    13.353653    13.253679    2.3375622    3707.3656     9.291643 
 2096000    819.38962   -893.92919            0   -880.37214    4362.4079     13.45396    13.353653    13.253679    1.8291691    3709.2275    7.4333217 
 2097000    902.54254   -895.35063            0   -880.41779    5717.8787     13.45396    13.353653    13.253679    2.4979262    3711.0891    5.5749962 
 2098000    741.49686   -895.03812            0   -882.76983    2783.6428     13.45396    13.353653    13.253679    2.3574486     3712.956    3.7166727 
 2099000     839.5286   -893.01168            0   -879.12143    5751.0633     13.45396    13.353653    13.253679    2.6421503    3714.8159    1.8583371 
 2100000    839.82273   -895.25791            0   -881.36279    4039.4418     13.45396    13.353653    13.253679    1.9431207    3716.6713            0 
Loop time of 3716.67 on 1 procs for 2000000 steps with 129 atoms

Performance: 46.493 ns/day, 0.516 hours/ns, 538.116 timesteps/s
99.9% CPU use with 1 MPI tasks x no OpenMP threads

MPI task timing breakdown:
Section |  min time  |  avg time  |  max time  |%varavg| %total
---------------------------------------------------------------
Pair    | 2506.7     | 2506.7     | 2506.7     |   0.0 | 67.44
Kspace  | 1135.3     | 1135.3     | 1135.3     |   0.0 | 30.54
Neigh   | 29.399     | 29.399     | 29.399     |   0.0 |  0.79
Comm    | 32.517     | 32.517     | 32.517     |   0.0 |  0.87
Output  | 0.55555    | 0.55555    | 0.55555    |   0.0 |  0.01
Modify  | 5.8391     | 5.8391     | 5.8391     |   0.0 |  0.16
Other   |            | 6.414      |            |       |  0.17

Nlocal:        129.000 ave         129 max         129 min
Histogram: 1 0 0 0 0 0 0 0 0 0
Nghost:        3838.00 ave        3838 max        3838 min
Histogram: 1 0 0 0 0 0 0 0 0 0
Neighs:        40217.0 ave       40217 max       40217 min
Histogram: 1 0 0 0 0 0 0 0 0 0

Total # of neighbors = 40217
Ave neighs/atom = 311.75969
Neighbor list builds = 28203
Dangerous builds = 0

# Final Commands
variable final_energy equal etotal
print "final_energy: ${final_energy}"
final_energy: -881.362791578049
print "END_OF_COMP"
END_OF_COMP
Total wall time: 1:05:33
