LAMMPS (10 Feb 2021)
Reading data file ...
  orthogonal box = (0.0000000 0.0000000 0.0000000) to (13.503000 13.503000 13.503000)
  1 by 1 by 1 MPI processor grid
  reading atoms ...
  129 atoms
  read_data CPU = 0.001 seconds
PPPM initialization ...
  using 12-bit tables for long-range coulomb (../kspace.cpp:339)
  G vector (1/distance) = 0.27805162
  grid = 15 15 15
  stencil order = 5
  estimated absolute RMS force accuracy = 6.1260485e-05
  estimated relative force accuracy = 4.2543052e-06
  using double precision KISS FFT
  3d grid and FFT values/proc = 10648 3375
Neighbor list info ...
  update every 1 steps, delay 10 steps, check yes
  max neighbors/atom: 2000, page size: 100000
  master list distance cutoff = 14
  ghost atom cutoff = 14
  binsize = 7, bins = 2 2 2
  1 neighbor lists, perpetual/occasional/extra = 1 0 0
  (1) pair buck/coul/long, perpetual
      attributes: half, newton on
      pair build: half/bin/atomonly/newton
      stencil: half/bin/3d/newton
      bin: standard
Setting up Verlet run ...
  Unit style    : metal
  Current step  : 0
  Time step     : 0.001
Per MPI rank memory allocation (min/avg/max) = 4.400 | 4.400 | 4.400 Mbytes
Step Temp E_pair E_mol TotEng Press Lx Ly Lz Fmax CPU CPULeft 
       0          300   -890.25354            0   -885.28996   -22532.147       13.503       13.503       13.503    5.4570963            0            0 
    1000    353.50325     -899.892            0   -894.04319    574.70413    13.303428    13.268522    13.425754     1.814976     2.588764    126.84963 
    2000    293.76092   -901.99667            0    -897.1363   -132.29875    13.238688    13.371188     13.30952      1.22316    5.1401761    123.36423 
    3000    273.55548   -901.51036            0    -896.9843    300.60577    13.273022    13.379297    13.215985    1.9394061    7.6591899    119.99398 
    4000     325.0143   -901.05032            0   -895.67286    3308.0102    13.256784    13.341571    13.271397    1.3814724    10.174392    117.00552 
    5000    303.19897   -901.90241            0   -896.88589    2269.4468    13.355777    13.360997    13.161529    1.4666275    12.701592    114.31433 
    6000    265.45635   -901.25163            0   -896.85958    1713.1213    13.194748    13.326256    13.331341    1.8177015    15.217742    111.59677 
    7000     332.2194   -901.49098            0   -895.99431    1371.0442     13.17323    13.400025    13.322092    1.6879781    17.781074     109.2266 
    8000    291.85247   -901.92155            0   -897.09277    3440.5435    13.254142    13.375744    13.199263   0.99982843    20.312261    106.63938 
    9000    264.09437     -901.138            0   -896.76848    3538.6242    13.192179    13.329235    13.277815    1.7419815    22.832307    104.01385 
   10000    284.88978    -901.1086            0   -896.39501    5846.3247    13.140675    13.416729    13.166948    1.8708618    25.363563    101.45426 
   11000    288.41166   -901.19253            0   -896.42068    4351.9863    13.217296    13.126015    13.417055    1.7521491    27.897366    98.908843 
   12000    268.46253   -901.78758            0   -897.34579    2934.3837     13.19523    13.366585    13.254577    1.2697397    30.423711    96.341752 
   13000     319.1208   -901.43992            0   -896.15997    4526.7172    13.245614    13.270927    13.275482    1.3764105    32.939279    93.750256 
   14000     312.4353    -901.6396            0   -896.47026    2391.9362    13.260586    13.216926    13.301248    1.6820952    35.461742    91.187339 
   15000    284.88191   -902.55796            0    -897.8445    2948.6539    13.214515    13.348335    13.200663     1.040558    37.977341    88.613798 
   16000    299.65346   -901.82591            0   -896.86805    2906.8517    13.232605    13.373825    13.174029     1.397333    40.503046    86.068975 
   17000    352.26474   -902.04293            0    -896.2146     2091.968    13.308679    13.315234    13.249639    1.4290719    43.041637    83.551415 
   18000    289.59881    -901.1432            0    -896.3517    398.08568    13.345865    13.125943    13.405504    1.3067744    45.581433    81.033659 
   19000    284.40582    -902.1694            0   -897.46382     1601.323    13.420641    13.154742    13.260095    1.3440099    48.103761    78.485084 
   20000    315.63113   -902.16161            0    -896.9394   -102.08189    13.350734    13.280835    13.236158    1.6596167    50.626167    75.939252 
   21000    302.32804   -901.63983            0   -896.63772    142.50312    13.346903    13.138404    13.348584    1.4820977     53.14743     73.39407 
   22000    302.47101   -901.90704            0   -896.90256     865.7744    13.405975    13.052499    13.372812    1.4934805    55.668754    70.851143 
   23000      286.623   -901.79307            0   -897.05081   -356.69117    13.437485    13.269892    13.185867    1.5127283    58.184203    68.303196 
   24000    288.85024   -901.38197            0   -896.60286   -1034.2264    13.427859    13.240619    13.268385     2.007169    60.716072    65.775746 
   25000    335.07958   -902.72119            0    -897.1772   -481.02456    13.377253    13.207992    13.239313    1.2249644    63.263245    63.263245 
   26000    270.49258   -901.98234            0   -897.50696   -2389.2791    13.358244     13.37216    13.218152    1.3249827    65.781588    60.721467 
   27000    326.60412   -901.64473            0   -896.24097    -3453.581    13.343162     13.36424    13.289167    1.3348718     68.30721    58.187624 
   28000    304.77775   -902.21672            0   -897.17408   -2668.4648    13.369537     13.27154    13.322677    1.4407391    70.827512    55.650188 
   29000    288.07609   -901.66816            0   -896.90185   -5138.0908    13.424841    13.242965    13.367706    1.4609419    73.346828     53.11322 
   30000    318.65708    -901.4112            0   -896.13893   -1459.7119    13.415853    13.193848    13.369741    1.4105125    75.860647    50.573765 
   31000    312.24303   -902.20605            0    -897.0399   -6023.8319    13.367959    13.354527     13.33251    1.0545587    78.399445    48.051273 
   32000     301.6834   -901.91581            0   -896.92437   -3188.0883    13.351748      13.3019    13.333575    1.4579955    80.932394    45.524472 
   33000    347.58931     -901.687            0   -895.93603   -5267.7516    13.441469    13.320297    13.335449     1.594264    83.451274    42.990051 
   34000     294.4735   -902.02168            0   -897.14952   -4956.2364    13.455347    13.235462    13.350131    1.4385747    85.969463    40.456218 
   35000    312.82112   -902.12354            0   -896.94782   -1494.8507    13.384727    13.205228    13.334095    1.1879432    88.495782    37.926764 
   36000    365.49626   -901.64209            0   -895.59484   -5064.8222    13.174039     13.39011     13.46958    1.2295212    91.011241    35.393261 
   37000    297.74702   -902.17825            0   -897.25193   -2653.1277    13.518038    13.265761    13.186695    1.4310829    93.552288    32.869723 
   38000    305.03467   -901.74831            0   -896.70142   -2279.1855    13.241666    13.336482    13.352828    1.2509497    96.087783     30.34351 
   39000    318.48735   -901.42828            0   -896.15881   -3041.3708    13.428866    13.284891    13.281788    1.5814004    98.607061    27.812248 
   40000    276.50705     -902.059            0   -897.48411   -1335.3941    13.339177     13.11977    13.460328    1.3479862    101.13842    25.284606 
   41000    316.18099   -901.85489            0   -896.62358   -2961.8958    13.384128    13.318417    13.281548    1.1553778    103.66936     22.75669 
   42000    325.39562   -901.95318            0   -896.56941   -3754.9357    13.254474    13.351841    13.389197    1.1024339    106.18826    20.226335 
   43000    292.93999   -901.96593            0   -897.11916   -1405.4684    13.361649    13.343677    13.258989    1.3304511    108.70759    17.696585 
   44000    302.86736   -902.73416            0   -897.72313   -725.25194    13.360863    13.267171    13.267826    1.7197068    111.23969    15.169048 
   45000    325.00282   -902.12113            0   -896.74386   -1303.6038    13.387789    13.197386    13.375663    1.7989296    113.76021    12.640024 
   46000    309.31328    -901.7913            0   -896.67362    -837.5074     13.38447    13.239789    13.286874    1.1196533    116.28761    10.111966 
   47000    293.09054   -902.65322            0   -897.80395    1095.3807    13.306968    13.193939    13.261327    1.4077546    118.82316    7.5844572 
   48000    319.02543   -902.54027            0    -897.2619    1288.5567    13.276763    13.208057     13.29377    1.1249714    121.34467     5.056028 
   49000    298.05683   -901.64868            0   -896.71724    422.22843    13.447356     13.10993    13.355585    2.0697237    123.86551    2.5278677 
   50000     293.5068   -901.65826            0    -896.8021    3890.6565    13.257281    13.378329    13.045799    1.4684549    126.40964            0 
Loop time of 126.41 on 1 procs for 50000 steps with 129 atoms

Performance: 34.175 ns/day, 0.702 hours/ns, 395.539 timesteps/s
99.9% CPU use with 1 MPI tasks x no OpenMP threads

MPI task timing breakdown:
Section |  min time  |  avg time  |  max time  |%varavg| %total
---------------------------------------------------------------
Pair    | 63.725     | 63.725     | 63.725     |   0.0 | 50.41
Kspace  | 29.394     | 29.394     | 29.394     |   0.0 | 23.25
Neigh   | 0.33623    | 0.33623    | 0.33623    |   0.0 |  0.27
Comm    | 0.82443    | 0.82443    | 0.82443    |   0.0 |  0.65
Output  | 0.001143   | 0.001143   | 0.001143   |   0.0 |  0.00
Modify  | 31.939     | 31.939     | 31.939     |   0.0 | 25.27
Other   |            | 0.1894     |            |       |  0.15

Nlocal:        129.000 ave         129 max         129 min
Histogram: 1 0 0 0 0 0 0 0 0 0
Nghost:        3838.00 ave        3838 max        3838 min
Histogram: 1 0 0 0 0 0 0 0 0 0
Neighs:        40643.0 ave       40643 max       40643 min
Histogram: 1 0 0 0 0 0 0 0 0 0

Total # of neighbors = 40643
Ave neighs/atom = 315.06202
Neighbor list builds = 329
Dangerous builds = 0
PPPM initialization ...
  using 12-bit tables for long-range coulomb (../kspace.cpp:339)
  G vector (1/distance) = 0.27900258
  grid = 15 15 15
  stencil order = 5
  estimated absolute RMS force accuracy = 5.8108708e-05
  estimated relative force accuracy = 4.0354264e-06
  using double precision KISS FFT
  3d grid and FFT values/proc = 10648 3375
Setting up Verlet run ...
  Unit style    : metal
  Current step  : 50000
  Time step     : 0.001
Per MPI rank memory allocation (min/avg/max) = 4.400 | 4.400 | 4.400 Mbytes
Step Temp E_pair E_mol TotEng Press Lx Ly Lz Fmax CPU CPULeft 
   50000     293.5068   -901.65837            0   -896.80222    3890.1343    13.257281    13.378329    13.045799    1.4684598            0            0 
   51000     291.0251   -902.62555            0   -897.81046     5046.963    13.257281    13.378329    13.045799    1.3559589     1.885958     92.41194 
   52000    318.64988   -903.07728            0   -897.80512    4118.9103    13.257281    13.378329    13.045799   0.98630124     3.760318    90.247633 
   53000    312.89453   -902.32385            0   -897.14691    4504.9698    13.257281    13.378329    13.045799     1.433693    5.6468081    88.466676 
   54000    317.97229   -901.92345            0   -896.66251    5894.3878    13.257281    13.378329    13.045799    1.6367729    7.5224311    86.507958 
   55000    274.86227   -902.28353            0   -897.73585    3438.5806    13.257281    13.378329    13.045799    1.6893395    9.4079511     84.67156 
   56000    298.54278   -902.10853            0   -897.16905    4412.9776    13.257281    13.378329    13.045799    1.2633099    11.284532    82.753242 
   57000    321.03023   -902.11961            0   -896.80807     5453.323    13.257281    13.378329    13.045799    1.3353765    13.169606    80.899014 
   58000    260.25883   -901.74496            0    -897.4389    4237.0683    13.257281    13.378329    13.045799    1.3064284    15.042506    78.973156 
   59000    344.90816   -902.36148            0   -896.65487    6188.7108    13.257281    13.378329    13.045799     1.359553    16.911583    77.041661 
   60000    305.84047   -901.82752            0    -896.7673    6095.9479    13.257281    13.378329    13.045799    2.0233685    18.779141    75.116569 
   61000    271.04526   -901.97631            0   -897.49179     3551.755    13.257281    13.378329    13.045799    1.5675995    20.657628    73.240681 
   62000     327.8829   -901.92077            0   -896.49585    4991.6432    13.257281    13.378329    13.045799    1.4463336    22.527594    71.337384 
   63000    312.69854   -901.93009            0    -896.7564     3993.978    13.257281    13.378329    13.045799    1.2404723    24.398104    69.440757 
   64000    285.12655   -902.24254            0   -897.52503    5950.8315    13.257281    13.378329    13.045799    1.3975048    26.270035    67.551521 
   65000    300.84584   -902.75697            0   -897.77939    5060.5173    13.257281    13.378329    13.045799    1.1047304    28.140824    65.661923 
   66000    334.31538   -902.12356            0   -896.59221     5999.157    13.257281    13.378329    13.045799    1.7386276    30.013085    63.777808 
   67000    285.23792   -902.33653            0   -897.61719    5732.7977    13.257281    13.378329    13.045799      1.41252    31.897311     61.91831 
   68000    305.19697   -902.51455            0   -897.46497    5458.7067    13.257281    13.378329    13.045799    1.3635199    33.772412    60.039844 
   69000    311.10833   -901.87693            0   -896.72955    7441.5756    13.257281    13.378329    13.045799    1.3930796    35.650747    58.167008 
   70000    299.87607    -902.1537            0   -897.19216    5911.9807    13.257281    13.378329    13.045799    1.2964758    37.533607    56.300412 
   71000    271.27114   -902.29063            0   -897.80237    5234.9499    13.257281    13.378329    13.045799    1.4806394    39.404215    54.415346 
   72000    321.45151     -901.877            0   -896.55849    6088.9548    13.257281    13.378329    13.045799    1.3682183    41.298832     52.56215 
   73000    316.89189   -902.31162            0   -897.06855    5392.0846    13.257281    13.378329    13.045799    1.3996565    43.171995    50.680168 
   74000    273.15928   -902.15062            0   -897.63112    5529.5885    13.257281    13.378329    13.045799    1.5293039    45.053483     48.80794 
   75000    273.48962   -902.22908            0   -897.70411    5830.0025    13.257281    13.378329    13.045799    1.5597479    46.928958    46.928958 
   76000    305.47863   -901.71525            0   -896.66101    8064.8976    13.257281    13.378329    13.045799    1.4823105    48.804331    45.050152 
   77000    322.88166   -903.16674            0   -897.82457    3699.5194    13.257281    13.378329    13.045799    1.0899167    50.676978    43.169278 
   78000    304.49796    -902.5115            0   -897.47349    4350.3727    13.257281    13.378329    13.045799    1.2362665    52.553645     41.29215 
   79000    310.86025   -901.84833            0   -896.70506    7042.7291    13.257281    13.378329    13.045799    1.5009796    54.426018    39.411945 
   80000    297.42489   -902.05985            0   -897.13886    5212.3479    13.257281    13.378329    13.045799     1.408479    56.360815    37.573877 
   81000    295.07698   -902.68457            0   -897.80243    6086.2447    13.257281    13.378329    13.045799    1.3868358    58.234194    35.691925 
   82000    342.88612   -902.20788            0   -896.53472    5627.8171    13.257281    13.378329    13.045799    1.3098375    60.127409    33.821668 
   83000    315.35878   -902.24229            0   -897.02458    5981.1304    13.257281    13.378329    13.045799    1.3430864    62.002865     31.94087 
   84000    277.68661   -902.23169            0   -897.63728    6647.7753    13.257281    13.378329    13.045799     1.484176    63.879511    30.060947 
   85000    303.55063   -902.73828            0   -897.71594    5398.3723    13.257281    13.378329    13.045799    1.7943691    65.750693    28.178869 
   86000    309.22698   -901.82158            0   -896.70532    4480.6805    13.257281    13.378329    13.045799    1.4916545     67.61915    26.296337 
   87000    297.80984    -902.8495            0   -897.92214    4430.9928    13.257281    13.378329    13.045799    1.3841575    69.490847    24.415703 
   88000    279.29775   -902.18311            0   -897.56204    5456.4167    13.257281    13.378329    13.045799      1.13871    71.366012    22.536635 
   89000    313.43134   -902.13815            0   -896.95234    6702.1342    13.257281    13.378329    13.045799    1.3166815    73.252801    20.661047 
   90000    318.91892   -902.75865            0   -897.48204    3229.7171    13.257281    13.378329    13.045799    1.2375237    75.176759     18.79419 
   91000    273.27675   -902.46133            0   -897.93988    4490.5534    13.257281    13.378329    13.045799    1.3626666    77.056193    16.914774 
   92000    328.97414   -902.21399            0   -896.77101    6380.2397    13.257281    13.378329    13.045799    1.2951798    78.939188    15.036036 
   93000     322.1174    -902.6706            0   -897.34107    4727.3382    13.257281    13.378329    13.045799    1.6460696    80.827951    13.158039 
   94000    314.30809   -902.68424            0   -897.48392     5903.604    13.257281    13.378329    13.045799    1.4205079    82.703377    11.277733 
   95000    312.54885   -902.49128            0   -897.32006    5748.0029    13.257281    13.378329    13.045799    1.3436467    84.587596    9.3986219 
   96000    331.63775   -902.01962            0   -896.53257    4514.1996    13.257281    13.378329    13.045799    1.5966519    86.460619    7.5183148 
   97000     317.2793   -903.02391            0   -897.77443    4536.2156    13.257281    13.378329    13.045799    1.2120868    88.340254    5.6387397 
   98000    308.99619   -902.52845            0   -897.41602    5856.8155    13.257281    13.378329    13.045799    1.1928886    90.211643    3.7588185 
   99000    334.39643   -902.07682            0   -896.54413    6667.8249    13.257281    13.378329    13.045799    1.2398915    92.099407    1.8795797 
  100000    284.46333    -902.1653            0   -897.45877    3443.2706    13.257281    13.378329    13.045799    1.3697389    93.969718            0 
Loop time of 93.9697 on 1 procs for 50000 steps with 129 atoms

Performance: 45.972 ns/day, 0.522 hours/ns, 532.086 timesteps/s
99.9% CPU use with 1 MPI tasks x no OpenMP threads

MPI task timing breakdown:
Section |  min time  |  avg time  |  max time  |%varavg| %total
---------------------------------------------------------------
Pair    | 64.212     | 64.212     | 64.212     |   0.0 | 68.33
Kspace  | 28.6       | 28.6       | 28.6       |   0.0 | 30.44
Neigh   | 0.057487   | 0.057487   | 0.057487   |   0.0 |  0.06
Comm    | 0.7839     | 0.7839     | 0.7839     |   0.0 |  0.83
Output  | 0.0010562  | 0.0010562  | 0.0010562  |   0.0 |  0.00
Modify  | 0.1476     | 0.1476     | 0.1476     |   0.0 |  0.16
Other   |            | 0.1669     |            |       |  0.18

Nlocal:        129.000 ave         129 max         129 min
Histogram: 1 0 0 0 0 0 0 0 0 0
Nghost:        3838.00 ave        3838 max        3838 min
Histogram: 1 0 0 0 0 0 0 0 0 0
Neighs:        41374.0 ave       41374 max       41374 min
Histogram: 1 0 0 0 0 0 0 0 0 0

Total # of neighbors = 41374
Ave neighs/atom = 320.72868
Neighbor list builds = 56
Dangerous builds = 0
PPPM initialization ...
  using 12-bit tables for long-range coulomb (../kspace.cpp:339)
  G vector (1/distance) = 0.27900258
  grid = 15 15 15
  stencil order = 5
  estimated absolute RMS force accuracy = 5.8108708e-05
  estimated relative force accuracy = 4.0354264e-06
  using double precision KISS FFT
  3d grid and FFT values/proc = 10648 3375
Setting up Verlet run ...
  Unit style    : metal
  Current step  : 100000
  Time step     : 0.001
Per MPI rank memory allocation (min/avg/max) = 5.671 | 5.671 | 5.671 Mbytes
Step Temp E_pair E_mol TotEng Press Lx Ly Lz Fmax CPU CPULeft 
  100000    284.46333    -902.1653            0   -897.45877    3443.2706    13.257281    13.378329    13.045799    1.3697389            0            0 
  101000    288.27377    -902.1452            0   -897.37562     4528.766    13.257281    13.378329    13.045799    1.4662659     1.886874     3771.863 
  102000    304.57079   -902.11297            0   -897.07376    5047.0494    13.257281    13.378329    13.045799    1.3078412    3.7712381    3767.4669 
  103000    277.83627   -902.56374            0   -897.96685    5396.8063    13.257281    13.378329    13.045799    1.6046668     5.652755    3762.8506 
  104000    308.62179   -902.42795            0   -897.32171    4886.3573    13.257281    13.378329    13.045799    1.3915969    7.5411701    3763.0439 
  105000     285.1196   -901.79717            0   -897.07978    6443.5912    13.257281    13.378329    13.045799    1.4808629      9.42962    3762.4184 
  106000    297.42171   -902.76861            0   -897.84768    4581.5426    13.257281    13.378329    13.045799    1.3944385    11.316583    3760.8781 
  107000    356.23545   -902.32954            0   -896.43552    5664.5921    13.257281    13.378329    13.045799    1.7033448    13.226558    3765.7903 
  108000    306.84551   -902.53147            0   -897.45462    6461.0337    13.257281    13.378329    13.045799     1.610863    15.115532    3763.7674 
  109000    295.00335   -902.48723            0   -897.60631    6331.7683    13.257281    13.378329    13.045799    1.2375698    17.004826    3761.8454 
  110000    337.97656   -901.79556            0   -896.20363     6976.714    13.257281    13.378329    13.045799    2.0567589     18.89364    3759.8344 
  111000    324.60419   -902.39042            0   -897.01974    5343.3467    13.257281    13.378329    13.045799    1.7734686    20.782181    3757.7964 
  112000    291.61855   -902.59242            0    -897.7675     5691.953    13.257281    13.378329    13.045799    1.2911908    22.674291    3756.3744 
  113000    313.19126   -902.37327            0   -897.19142    4794.4251    13.257281    13.378329    13.045799    1.4558664    24.565729    3754.7772 
  114000    332.58267   -902.45216            0   -896.94949    6338.5884    13.257281    13.378329    13.045799    1.4947524    26.477639    3756.0423 
  115000    275.23467   -902.37362            0   -897.81978    5336.3453    13.257281    13.378329    13.045799    1.5783364    28.367426     3753.956 
  116000    318.76483   -902.58227            0   -897.30821    5287.5725    13.257281    13.378329    13.045799    1.5041758    30.259819    3752.2176 
  117000    338.31071   -901.77208            0   -896.17463    5936.2311    13.257281    13.378329    13.045799    1.6161171     32.14873    3750.0549 
  118000    287.11572    -901.9432            0   -897.19279    3174.0008    13.257281    13.378329    13.045799    1.2509869     34.04648    3748.8959 
  119000    290.55251   -902.45621            0   -897.64893    4940.8389    13.257281    13.378329    13.045799    1.3559218    35.934182    3746.6114 
  120000    297.01128   -901.82847            0   -896.91433    6707.5224    13.257281    13.378329    13.045799    1.3362056    37.819742    3744.1545 
  121000    316.84216   -902.38722            0   -897.14497    5208.9378    13.257281    13.378329    13.045799    1.8254607    39.703331    3741.5664 
  122000    308.13489   -902.84491            0   -897.74673    3850.6317    13.257281    13.378329    13.045799    1.0807324    41.590876    3739.3979 
  123000    325.80676   -902.20699            0   -896.81642    4979.6101    13.257281    13.378329    13.045799    1.1865857    43.477172    3737.1466 
  124000    326.98355   -902.85908            0   -897.44904    5932.1177    13.257281    13.378329    13.045799    1.1575469      45.3669    3735.2081 
  125000    293.72643   -902.73735            0   -897.87756    4111.8504    13.257281    13.378329    13.045799     1.350914    47.255628    3733.1947 
  126000    337.50531   -902.37117            0   -896.78704    4652.2784    13.257281    13.378329    13.045799    1.5196492    49.142527    3731.0519 
  127000    289.19777   -902.17132            0   -897.38645    4972.0164    13.257281    13.378329    13.045799    1.9855029    51.027371    3728.7779 
  128000    309.81985   -902.71672            0   -897.59065    5147.1519    13.257281    13.378329    13.045799    1.3935823    52.927581     3727.614 
  129000    298.29478   -902.44618            0    -897.5108    5357.2902    13.257281    13.378329    13.045799    1.3101316    54.809906    3725.1837 
  130000    316.62921   -902.04398            0   -896.80525    7178.8409    13.257281    13.378329    13.045799    1.4172885    56.700748    3723.3491 
  131000    290.63589   -902.84765            0   -898.03899    4477.8723    13.257281    13.378329    13.045799    1.5016233    58.583449    3720.9939 
  132000    286.04894   -902.27199            0   -897.53923    3971.7157    13.257281    13.378329    13.045799    1.4325914    60.469629    3718.8822 
  133000    304.67237   -902.27451            0   -897.23362    5676.8914    13.257281    13.378329    13.045799    1.6646124    62.381645    3718.3242 
  134000    308.30305    -902.7525            0   -897.65153    4857.4156    13.257281    13.378329    13.045799    1.4274114     64.27145    3716.4021 
  135000    238.05407   -902.52796            0   -898.58929    5628.1678    13.257281    13.378329    13.045799    1.3901639    66.162498    3714.5517 
  136000    292.12303   -902.21524            0   -897.38198    5422.3194    13.257281    13.378329    13.045799     1.531277    68.051354    3712.5795 
  137000    306.82405   -902.39406            0   -897.31756    5167.3509    13.257281    13.378329    13.045799    2.2597952    69.937993    3710.4941 
  138000    260.42502   -902.70563            0   -898.39682    4194.9392    13.257281    13.378329    13.045799    1.2314735    71.830524    3708.7234 
  139000    302.95684   -902.12456            0   -897.11205    5212.7391    13.257281    13.378329    13.045799    1.6360206     73.71846    3706.7154 
  140000    299.44638   -902.45595            0   -897.50152    5056.2172    13.257281    13.378329    13.045799    1.1919299     75.60241    3704.5181 
  141000    263.17442   -902.45049            0    -898.0962     3613.604    13.257281    13.378329    13.045799    1.1603467    77.502097    3703.0881 
  142000    357.44174   -902.67145            0   -896.75747    5109.9736    13.257281    13.378329    13.045799     1.235348    79.388412    3701.0122 
  143000    272.88679   -902.30247            0   -897.78748    5504.0627    13.257281    13.378329    13.045799    1.0252096    81.282643    3699.3054 
  144000    291.92067   -902.55618            0   -897.72627    5441.5061    13.257281    13.378329    13.045799    1.4130141     83.16977    3697.2744 
  145000    290.06584   -902.25673            0    -897.4575    5796.3985    13.257281    13.378329    13.045799    2.0854472    85.067046    3695.6906 
  146000    290.92774    -902.3054            0   -897.49191    6147.9303    13.257281    13.378329    13.045799    1.3846569    86.955727    3693.7281 
  147000    290.33781   -902.68262            0   -897.87889    5098.5309    13.257281    13.378329    13.045799    1.8428049    88.875081    3693.0433 
  148000    286.53532   -902.24888            0   -897.50807    5816.4219    13.257281    13.378329    13.045799    1.3500666     90.75774    3690.8148 
  149000    303.81256   -902.01062            0   -896.98396    6404.0514    13.257281    13.378329    13.045799    1.6691422    92.657092    3689.2651 
  150000    312.75601   -903.40314            0    -898.2285    3711.5808    13.257281    13.378329    13.045799    1.1823154    94.539507    3687.0408 
  151000    309.41691   -902.50291            0   -897.38352    4570.5344    13.257281    13.378329    13.045799    1.5968016    96.436395     3685.383 
  152000    328.06572   -902.70751            0   -897.27956     4538.663    13.257281    13.378329    13.045799    1.4750762    98.343702    3684.1064 
  153000    267.68055   -903.09568            0   -898.66683    3924.7551    13.257281    13.378329    13.045799    1.2206562    100.22839     3681.975 
  154000     319.7291   -902.80361            0   -897.51359    4789.9745    13.257281    13.378329    13.045799     1.524891    102.13538    3680.6564 
  155000    306.97803   -902.27391            0   -897.19487    4640.2952    13.257281    13.378329    13.045799    1.2961984    104.02271    3678.6213 
  156000    266.04605   -902.81796            0   -898.41615    3971.9721    13.257281    13.378329    13.045799    1.3941543    105.93139    3677.3326 
  157000    301.10713   -902.54528            0   -897.56337    5793.5823    13.257281    13.378329    13.045799    1.4030353     107.8236    3675.4608 
  158000    295.95168   -902.29584            0   -897.39924    4570.2677    13.257281    13.378329    13.045799    1.3929381    109.73534    3674.2419 
  159000     287.0424   -902.72541            0    -897.9762    5754.2728    13.257281    13.378329    13.045799    1.2131971    111.62241    3672.1881 
  160000     280.8594   -902.48926            0   -897.84236    4392.1243    13.257281    13.378329    13.045799    1.1271016    113.52465    3670.6304 
  161000     283.9815   -901.78723            0   -897.08867    5787.5387    13.257281    13.378329    13.045799    1.4649468    115.41306    3668.6217 
  162000    300.57473   -902.98521            0   -898.01211    2638.0797    13.257281    13.378329    13.045799    1.1927619    117.32313    3667.2941 
  163000    251.31196   -903.34278            0   -899.18475    4350.8628    13.257281    13.378329    13.045799    1.3876445    119.21195    3665.2944 
  164000    308.06906   -902.79617            0   -897.69907    4774.4187    13.257281    13.378329    13.045799    1.1089143    121.10872    3663.5389 
  165000    323.75566   -902.31635            0   -896.95972    6395.5236    13.257281    13.378329    13.045799    1.3890824    122.99672    3661.5178 
  166000    312.36356   -903.20295            0   -898.03481    5450.6651    13.257281    13.378329    13.045799    1.4973487    124.89603    3659.8322 
  167000    302.36056   -902.71129            0   -897.70864    3787.7925    13.257281    13.378329    13.045799    1.2057079    126.78444    3657.8258 
  168000    311.71454   -902.58188            0   -897.42447    6131.8714    13.257281    13.378329    13.045799    1.3170027    128.69079    3656.3326 
  169000    282.48184    -902.2927            0   -897.61896    6342.5494    13.257281    13.378329    13.045799     1.508448    130.57617    3654.2404 
  170000     271.1116   -902.66099            0   -898.17537    4627.8829    13.257281    13.378329    13.045799    1.3887951    132.47452    3652.5117 
  171000    298.31403    -901.9302            0   -896.99451    7310.2529    13.257281    13.378329    13.045799    1.6488758    134.36135    3650.4655 
  172000    299.31846   -902.39448            0   -897.44217    5151.5327    13.257281    13.378329    13.045799    1.6934884    136.24295    3648.2835 
  173000    275.78941   -902.71476            0   -898.15174    4948.7183    13.257281    13.378329    13.045799    1.4517276    138.12935    3646.2364 
  174000    297.16428   -902.90309            0   -897.98642    6391.6408    13.257281    13.378329    13.045799    1.5893773    140.01538     3644.184 
  175000    309.79163   -902.09427            0   -896.96868    5567.6796    13.257281    13.378329    13.045799    1.4491348    141.90151    3642.1387 
  176000    282.07689   -902.67277            0   -898.00572    4025.8824    13.257281    13.378329    13.045799    1.2521122    143.79084    3640.1787 
  177000    293.36593   -902.64076            0   -897.78693    4998.1447    13.257281    13.378329    13.045799    1.3029106    145.67586    3638.1128 
  178000    325.12496   -902.81958            0   -897.44029    6072.5631    13.257281    13.378329    13.045799    1.5126484    147.56413    3636.1316 
  179000    296.57374   -902.17655            0   -897.26965    6183.9457    13.257281    13.378329    13.045799    1.5904614    149.46274    3634.4041 
  180000    268.87837   -902.08524            0   -897.63657    6621.7391    13.257281    13.378329    13.045799    1.7304183    151.35115    3632.4276 
  181000    295.57303   -902.76723            0   -897.87689    6060.7462    13.257281    13.378329    13.045799    1.3387169     153.2528    3630.7669 
  182000    344.99858   -902.43176            0   -896.72365    6512.4978    13.257281    13.378329    13.045799    2.1948465    155.14587    3628.8997 
  183000    295.09535    -902.7125            0   -897.83006    4768.7071    13.257281    13.378329    13.045799    1.2882433    157.05977    3627.5131 
  184000    318.76636   -902.90547            0   -897.63139    4781.7481    13.257281    13.378329    13.045799    1.3874246    158.95874    3625.7732 
  185000     317.8082   -902.12188            0   -896.86365    4743.3205    13.257281    13.378329    13.045799    1.4386946    160.86804    3624.2622 
  186000    281.72438   -902.22435            0   -897.56314    4623.1876    13.257281    13.378329    13.045799    1.5953129    162.75584    3622.2637 
  187000    279.36211   -902.53322            0   -897.91109    4393.5707    13.257281    13.378329    13.045799    1.6068488    164.66998    3620.8468 
  188000    315.37379   -901.99383            0   -896.77588     5782.148    13.257281    13.378329    13.045799    1.8838274    166.55718    3618.8333 
  189000    327.20816   -902.83362            0   -897.41986    6487.6693    13.257281    13.378329    13.045799    1.6862841     168.4636    3617.2352 
  190000    284.04952    -902.3477            0   -897.64802    4976.2968    13.257281    13.378329    13.045799    1.5175883    170.34639     3615.129 
  191000     305.3815   -901.66318            0   -896.61055     4574.198    13.257281    13.378329    13.045799    1.6831597    172.26273    3613.7313 
  192000    284.11833   -902.33738            0   -897.63655    6171.8614    13.257281    13.378329    13.045799    1.5807464     174.1665    3612.0617 
  193000    285.17399   -902.37899            0    -897.6607    5715.8658    13.257281    13.378329    13.045799    1.4222517    176.05773      3610.13 
  194000    323.34699   -901.44673            0   -896.09686     6356.117    13.257281    13.378329    13.045799    1.4273946    177.97115    3608.6491 
  195000    308.63755   -902.68629            0   -897.57979    5687.8975    13.257281    13.378329    13.045799    1.6220733    179.86182    3606.7028 
  196000     296.0287   -902.53705            0   -897.63917    4994.1375    13.257281    13.378329    13.045799     1.340348    181.76344     3604.975 
  197000    300.15932   -902.04071            0   -897.07449    3991.3435    13.257281    13.378329    13.045799     1.496045    183.65041     3602.956 
  198000    277.28617   -902.48241            0   -897.89462    5036.6274    13.257281    13.378329    13.045799    1.8221141     185.5834    3601.8329 
  199000    296.72713   -902.75693            0   -897.84749    4523.0602    13.257281    13.378329    13.045799    1.3408826    187.48612    3600.1122 
  200000    323.03443   -902.41943            0   -897.07473    5915.2677    13.257281    13.378329    13.045799     1.458525    189.38195    3598.2572 
  201000    299.74769   -902.80476            0   -897.84534    4452.0741    13.257281    13.378329    13.045799    1.3242746    191.27818    3596.4085 
  202000    292.52681    -902.7296            0   -897.88966    4869.9195    13.257281    13.378329    13.045799    1.4464518    193.16481    3594.3806 
  203000    337.83948   -902.44893            0   -896.85928    6191.3336    13.257281    13.378329    13.045799    1.2601246    195.05152    3592.3567 
  204000     273.5444   -902.52708            0   -898.00121    6192.6897    13.257281    13.378329    13.045799    1.3771754    196.94557    3590.4692 
  205000    276.47911   -902.28728            0   -897.71285    4114.7469    13.257281    13.378329    13.045799    1.3881911    198.83582    3588.5131 
  206000    298.85246   -902.24714            0   -897.30254      5890.55    13.257281    13.378329    13.045799    1.3593072    200.83838    3588.5651 
  207000    290.64666   -902.12493            0   -897.31609    4490.1444    13.257281    13.378329    13.045799    1.5215262    202.73255    3586.6609 
  208000    303.68347   -902.96402            0   -897.93949    5606.1167    13.257281    13.378329    13.045799      1.74696    204.62814    3584.7819 
  209000      279.196   -901.66317            0   -897.04379    6666.3654    13.257281    13.378329    13.045799     1.400368    206.53663    3583.1263 
  210000    319.58739   -902.42212            0   -897.13445    4075.7696    13.257281    13.378329    13.045799    1.2757199    208.43766    3581.3381 
  211000    297.61851   -902.60671            0   -897.68253    4870.0097    13.257281    13.378329    13.045799    1.3585699     210.3282     3579.369 
  212000    324.63235   -902.55296            0   -897.18182    4621.0332    13.257281    13.378329    13.045799    1.3263506    212.22538    3577.5135 
  213000    292.73328   -901.92804            0   -897.08468    5239.5158    13.257281    13.378329    13.045799    1.6281776    214.12364    3575.6752 
  214000    293.79592   -902.93797            0   -898.07703    3962.4607    13.257281    13.378329    13.045799    1.6566117    216.01471     3573.717 
  215000     341.3203    -902.4973            0   -896.85006    5800.5502    13.257281    13.378329    13.045799    1.3862851    217.91065    3571.8399 
  216000    293.00478   -902.09759            0   -897.24974    7347.7134    13.257281    13.378329    13.045799    1.4215857    219.80828    3569.9897 
  217000    265.42249   -902.19355            0   -897.80205    4987.6695    13.257281    13.378329    13.045799    1.3504847    221.72188    3568.3957 
  218000    348.48124   -902.63647            0   -896.87074    5353.4117    13.257281    13.378329    13.045799    1.2786886    223.61047    3566.3975 
  219000    322.17094   -902.71407            0   -897.38366     6070.922    13.257281    13.378329    13.045799    1.0882109    225.58872    3565.8184 
  220000    284.50315   -902.53742            0   -897.83023    5163.5285    13.257281    13.378329    13.045799     1.464276    227.47245    3563.7351 
  221000    304.01238   -902.29132            0   -897.26135    3660.8741    13.257281    13.378329    13.045799    1.2762673    229.37674    3561.9743 
  222000    294.23733   -902.93307            0   -898.06482    4210.9686    13.257281    13.378329    13.045799     1.096721     231.2625    3559.9259 
  223000    286.10147   -902.62135            0   -897.88771    3408.3948    13.257281    13.378329    13.045799    1.4268964    233.15725    3558.0175 
  224000    320.15267    -902.3563            0   -897.05928    5431.6858    13.257281    13.378329    13.045799    2.0647033    235.04124    3555.9466 
  225000    282.30742   -902.85293            0   -898.18207    5783.4647    13.257281    13.378329    13.045799    1.3825096    236.96183    3554.4274 
  226000    301.68118   -902.84682            0   -897.85541    4723.6966    13.257281    13.378329    13.045799    1.1221795    238.84775    3552.3864 
  227000    311.76549   -902.57034            0   -897.41208    4496.8659    13.257281    13.378329    13.045799    1.8022383    240.73533    3550.3722 
  228000    309.33778   -902.20688            0   -897.08879    5029.4223    13.257281    13.378329    13.045799     1.441966    242.65436      3548.82 
  229000    265.61986   -902.26683            0   -897.87207    4151.9959    13.257281    13.378329    13.045799    1.4380961    244.54326    3546.8251 
  230000     297.5945   -902.59789            0    -897.6741    4296.4623    13.257281    13.378329    13.045799    1.4057739    246.43298    3544.8436 
  231000     314.6059   -902.14529            0   -896.94004    5506.1051    13.257281    13.378329    13.045799    1.4215442    248.32058    3542.8333 
  232000    280.74305    -902.4076            0   -897.76262    6489.8127    13.257281    13.378329    13.045799    1.7084574    250.21897    3540.9776 
  233000    293.15985   -902.46622            0    -897.6158    5353.3052    13.257281    13.378329    13.045799    1.4500651    252.10612    3538.9634 
  234000      279.735   -902.04928            0   -897.42098    5356.0607    13.257281    13.378329    13.045799    1.4296159    254.03715    3537.5622 
  235000    338.20409   -902.50259            0    -896.9069     6054.053    13.257281    13.378329    13.045799    1.2122521    255.92409     3535.544 
  236000    316.05807   -902.87942            0   -897.65015    5458.6976    13.257281    13.378329    13.045799    1.7083139    257.80854    3533.4935 
  237000    284.47043   -902.55313            0   -897.84648    3855.3627    13.257281    13.378329    13.045799    1.6038663    259.69142    3531.4242 
  238000    328.28361   -902.09451            0   -896.66296    4370.6177    13.257281    13.378329    13.045799    1.2443153    261.60388    3529.7567 
  239000    329.16656   -902.93098            0   -897.48482    5038.9474    13.257281    13.378329    13.045799    1.2158817    263.50156    3527.8878 
  240000    281.23901   -902.56611            0   -897.91293    3739.7866    13.257281    13.378329    13.045799    1.5185443    265.40145    3526.0478 
  241000    351.77561   -902.41642            0   -896.59619    5210.3027    13.257281    13.378329    13.045799    1.3001137    267.29156    3524.0782 
  242000    290.52936   -902.45257            0   -897.64568     6073.036    13.257281    13.378329    13.045799    1.2276055    269.18694    3522.1785 
  243000    311.05984   -902.70806            0   -897.56148    5262.7335    13.257281    13.378329    13.045799    1.3348616    271.07463    3520.1789 
  244000    306.06209   -901.37961            0   -896.31572    5752.2755    13.257281    13.378329    13.045799    2.0950995    273.05082    3519.3216 
  245000    318.61086   -902.28549            0   -897.01398     5681.806    13.257281    13.378329    13.045799    1.4561772    274.95764    3517.5616 
  246000    278.04931   -902.33287            0   -897.73246    5147.5642    13.257281    13.378329    13.045799     1.415253    276.85454    3515.6734 
  247000    246.48821   -901.73677            0   -897.65855     7137.903    13.257281    13.378329    13.045799    1.9437866     278.7746    3514.0771 
  248000    316.58833    -901.9748            0   -896.73675    5692.2821    13.257281    13.378329    13.045799    1.5678644     280.6619    3512.0664 
  249000    301.13335   -902.77371            0   -897.79137    4538.1086    13.257281    13.378329    13.045799    1.5883805     282.5881    3510.5408 
  250000    326.47512    -902.8513            0   -897.44967    5268.9553    13.257281    13.378329    13.045799     1.429469    284.48111    3508.6003 
  251000    345.50675   -902.10033            0   -896.38382    6483.4384    13.257281    13.378329    13.045799    1.3513666    286.38729    3506.8219 
  252000    306.08904   -902.54799            0   -897.48366    6132.8498    13.257281    13.378329    13.045799    1.0944781    288.27266    3504.7886 
  253000    292.30457   -902.56899            0   -897.73272     6348.053    13.257281    13.378329    13.045799    1.3228294    290.16081     3502.791 
  254000    332.34101   -902.14749            0   -896.64881     4994.917    13.257281    13.378329    13.045799    1.6310796    292.05058     3500.814 
  255000    296.75521      -902.83            0    -897.9201    4051.7859    13.257281    13.378329    13.045799       1.5249    293.98852    3499.4117 
  256000    316.02554   -902.79711            0   -897.56837    4091.9459    13.257281    13.378329    13.045799    1.4209887    295.87739    3497.4225 
  257000    322.20428    -902.2606            0   -896.92963    6757.9234    13.257281    13.378329    13.045799    1.3764531    297.76151    3495.3788 
  258000     270.3659   -902.78323            0   -898.30995    3378.9586    13.257281    13.378329    13.045799    1.1704458    299.64918    3493.3784 
  259000    323.95912   -902.67556            0   -897.31556    5067.2449    13.257281    13.378329    13.045799    1.3277609    301.61305    3492.2619 
  260000    309.80214   -902.43777            0     -897.312    4010.4566    13.257281    13.378329    13.045799    1.6532395    303.50268    3490.2808 
  261000    238.24833   -902.44691            0   -898.50502    3529.4549    13.257281    13.378329    13.045799     1.327341     305.5324    3489.9011 
  262000     313.7254   -902.68706            0   -897.49638    4897.0335    13.257281    13.378329    13.045799    1.4495543    307.42266    3487.9188 
  263000    284.47824   -901.98774            0   -897.28096     5076.634    13.257281    13.378329    13.045799    1.4324543    309.32312    3486.0526 
  264000    251.86582   -902.57632            0   -898.40912     5122.473    13.257281    13.378329    13.045799    1.3182751    311.22262    3484.1752 
  265000    337.65215   -902.96436            0    -897.3778    5152.4743    13.257281    13.378329    13.045799    1.3623232    313.11199    3482.1849 
  266000    326.44572   -902.77633            0   -897.37519      4139.46    13.257281    13.378329    13.045799     1.572244    315.00501    3480.2361 
  267000    279.18805   -903.07172            0   -898.45247    4229.5009    13.257281    13.378329    13.045799     1.162755    316.89441    3478.2482 
  268000    287.83365   -902.28751            0   -897.52522    5324.5888    13.257281    13.378329    13.045799    1.3921349    318.82507    3476.7114 
  269000    312.45199   -902.41764            0   -897.24803    5050.9811    13.257281    13.378329    13.045799    1.5712723    320.71216     3474.698 
  270000    292.86268   -902.98489            0   -898.13939    5031.0864    13.257281    13.378329    13.045799    1.2590974    322.64481    3473.1765 
  271000    301.94881   -902.41576            0   -897.41993    4317.5632    13.257281    13.378329    13.045799    1.5148569    324.53126     3471.156 
  272000    313.21538   -902.32064            0   -897.13839    4232.7858    13.257281    13.378329    13.045799    1.3521232    326.42159    3469.1783 
  273000    287.04062   -902.86943            0   -898.12026    3578.6302    13.257281    13.378329    13.045799    1.6312477    328.31026    3467.1841 
  274000    327.08168   -902.01352            0   -896.60186    6296.5702    13.257281    13.378329    13.045799    1.5734754    330.21129    3465.3208 
  275000    289.06013   -902.22929            0   -897.44671    5542.3601    13.257281    13.378329    13.045799    1.3787325    332.09824    3463.3102 
  276000    302.99738   -902.88566            0   -897.87248    3876.7377    13.257281    13.378329    13.045799    1.2301615    333.99136     3461.365 
  277000    342.64896   -902.20692            0   -896.53769    5289.9655    13.257281    13.378329    13.045799    1.6028973    335.87704    3459.3437 
  278000    302.78964    -902.3185            0   -897.30875    5151.0303    13.257281    13.378329    13.045799    1.7025886    337.78256    3457.5271 
  279000    309.86456   -902.78535            0   -897.65855    4443.4638    13.257281    13.378329    13.045799    1.1559322    339.66885    3455.5139 
  280000    321.07173   -902.52382            0    -897.2116    4838.1455    13.257281    13.378329    13.045799    1.6277343    341.55156    3453.4658 
  281000    308.22965   -902.14595            0   -897.04619    5716.9932    13.257281    13.378329    13.045799     1.366846    343.45397    3451.6175 
  282000    308.15811    -903.0823            0   -897.98373    3894.2422    13.257281    13.378329    13.045799     1.102373     345.3497    3449.7019 
  283000    304.17391   -902.47154            0   -897.43889    6473.7598    13.257281    13.378329    13.045799    1.2406429    347.23633    3447.6962 
  284000    281.76202   -902.07694            0    -897.4151    5656.8404    13.257281    13.378329    13.045799    1.4815991    349.12275    3445.6897 
  285000    278.14862   -902.31956            0   -897.71751    5110.7101    13.257281    13.378329    13.045799    1.6819914    351.01059    3443.6985 
  286000    306.64303   -903.20831            0   -898.13481    4145.0443    13.257281    13.378329    13.045799    1.2663537    352.89463    3441.6713 
  287000    332.59381   -902.47306            0    -896.9702    4572.4527    13.257281    13.378329    13.045799    1.8168301    354.77795    3439.6386 
  288000    287.37775   -902.43773            0   -897.68298    5018.2246    13.257281    13.378329    13.045799    1.4657055    356.66843    3437.6766 
  289000     261.5815   -903.36005            0   -899.03211    4048.4029    13.257281    13.378329    13.045799    1.0127848    358.56381    3435.7622 
  290000    245.93973   -902.52778            0   -898.45864    4307.0717    13.257281    13.378329    13.045799    1.5660144    360.45109    3433.7709 
  291000    296.26699   -902.09282            0     -897.191    5824.3726    13.257281    13.378329    13.045799    1.2315863    362.33843    3431.7813 
  292000    329.32608   -902.76325            0   -897.31445    3913.1628    13.257281    13.378329    13.045799    1.4528433    364.22469    3429.7825 
  293000    303.66918   -903.16649            0    -898.1422    3943.9495    13.257281    13.378329    13.045799    1.0429466    366.11687    3427.8403 
  294000    305.38862   -902.54084            0   -897.48809    5896.2496    13.257281    13.378329    13.045799    1.3530018    368.00203    3425.8333 
  295000    293.56844   -902.26436            0   -897.40718    6249.2087    13.257281    13.378329    13.045799    1.3023266    369.90293    3423.9732 
  296000     318.0473   -902.87204            0   -897.60985    4736.7208    13.257281    13.378329    13.045799    1.4188963    371.78873    3421.9738 
  297000     316.6302    -903.1286            0   -897.88986    5127.5968    13.257281    13.378329    13.045799    1.3470682    373.67557    3419.9851 
  298000    312.18477   -901.93003            0   -896.76484     5040.551    13.257281    13.378329    13.045799    1.8778786    375.56269    3417.9998 
  299000    308.05452   -903.00641            0   -897.90956    5106.1727    13.257281    13.378329    13.045799    1.1140617    377.46374    3416.1417 
  300000    285.94141   -902.43029            0   -897.69931    5356.6548    13.257281    13.378329    13.045799    1.3759298    379.34797    3414.1317 
  301000    313.70759   -902.17482            0   -896.98444    4762.2197    13.257281    13.378329    13.045799    1.1529729    381.23393    3412.1385 
  302000    271.04969   -902.70008            0   -898.21548    5265.2113    13.257281    13.378329    13.045799    1.5612742    383.12267    3410.1711 
  303000    306.91022   -902.56302            0    -897.4851    3863.0024    13.257281    13.378329    13.045799    1.2660314    385.01083    3408.1993 
  304000    326.81559   -902.64804            0   -897.24078    5591.0321    13.257281    13.378329    13.045799    1.3677249    386.90386    3406.2712 
  305000     275.3494   -902.55976            0   -898.00402    6035.0776    13.257281    13.378329    13.045799    1.5687848    388.79748    3404.3487 
  306000     266.2836   -902.99097            0   -898.58523    3279.9771    13.257281    13.378329    13.045799    1.2887279    390.70232    3402.5241 
  307000     285.1815   -902.25063            0   -897.53222    4579.1076    13.257281    13.378329    13.045799     1.319709    392.60774    3400.7038 
  308000    304.48706   -902.00694            0   -896.96911    5752.7694    13.257281    13.378329    13.045799    1.2361941    394.50262    3398.7918 
  309000    257.61218   -902.42636            0   -898.16409    3720.9901    13.257281    13.378329    13.045799    1.5285687    396.39954    3396.8975 
  310000    299.06444   -902.46745            0   -897.51934    4346.4358    13.257281    13.378329    13.045799    1.4436034    398.28943    3394.9432 
  311000    288.85793   -902.06998            0   -897.29073    5699.0589    13.257281    13.378329    13.045799    1.3703744    400.17654     3392.966 
  312000    270.55925   -902.28381            0   -897.80732    3214.5469    13.257281    13.378329    13.045799    1.4878985    402.06575    3391.0073 
  313000    259.39722   -902.83803            0   -898.54623     4593.961    13.257281    13.378329    13.045799    1.4388401    403.95767    3389.0721 
  314000     305.1817   -902.30664            0   -897.25732    5973.8756    13.257281    13.378329    13.045799    1.2531584    405.84836    3387.1269 
  315000    304.44774   -902.62989            0   -897.59271    5787.3534    13.257281    13.378329    13.045799    1.7500138    407.73708     3385.166 
  316000    287.37285   -903.18799            0   -898.43332    3940.4952    13.257281    13.378329    13.045799    1.4437833    409.62213    3383.1754 
  317000    326.51595   -902.46373            0   -897.06142    4373.0286    13.257281    13.378329    13.045799    1.6353691    411.50889    3381.1998 
  318000    264.32518   -902.07852            0   -897.70518    6623.3976    13.257281    13.378329    13.045799    1.2738228    413.40026    3379.2627 
  319000    276.10564   -902.57066            0   -898.00241    4852.0562    13.257281    13.378329    13.045799    1.3442323    415.28983    3377.3114 
  320000    309.54769   -901.95328            0   -896.83172    5216.2455    13.257281    13.378329    13.045799    1.2406219    417.17478    3375.3233 
  321000    277.49928   -902.50615            0   -897.91484    4876.0736    13.257281    13.378329    13.045799    1.3221588    419.06632     3373.389 
  322000    303.81436   -902.57647            0   -897.54977      6278.59    13.257281    13.378329    13.045799    1.4849221    420.95281    3371.4149 
  323000    307.62489    -902.4285            0   -897.33875    4915.5738    13.257281    13.378329    13.045799    1.5245856    422.84253    3369.4672 
  324000     316.9928   -903.00283            0   -897.75809    4170.2383    13.257281    13.378329    13.045799    1.3107252     424.7269    3367.4776 
  325000    298.74783    -902.4893            0   -897.54643    4527.0151    13.257281    13.378329    13.045799    1.2702211    426.62431    3365.5918 
  326000    329.16025   -902.23288            0   -896.78683    5476.6587    13.257281    13.378329    13.045799    1.5902187    428.51098    3363.6216 
  327000    284.46758   -902.75844            0   -898.05184    5166.9855    13.257281    13.378329    13.045799     1.548533    430.39819    3361.6563 
  328000    307.33338   -902.40301            0   -897.31808    5506.2352    13.257281    13.378329    13.045799    1.1663852    432.28654    3359.7007 
  329000    269.43431   -901.79516            0   -897.33729    6160.8889    13.257281    13.378329    13.045799     1.497812    434.19033    3357.8649 
  330000    296.12799   -903.09963            0    -898.2001    3834.2427    13.257281    13.378329    13.045799    1.7323906    436.08397    3355.9505 
  331000     317.2136   -902.41519            0    -897.1668    4616.7424    13.257281    13.378329    13.045799    1.6501364    437.98256    3354.0742 
  332000    310.45362   -902.87881            0   -897.74226    5027.7796    13.257281    13.378329    13.045799    1.3596797    439.87387    3352.1422 
  333000    265.53008   -902.85532            0   -898.46204    4319.1629    13.257281    13.378329    13.045799    1.0868232    441.76686    3350.2234 
  334000    287.01957   -902.34316            0   -897.59434     6284.672    13.257281    13.378329    13.045799    1.7329699    443.66395    3348.3356 
  335000    327.90728    -902.4786            0   -897.05327    4158.0369    13.257281    13.378329    13.045799    1.7175017    445.55872    3346.4304 
  336000    281.37446   -902.92268            0   -898.26726    3119.5603    13.257281    13.378329    13.045799    1.4901936     447.4579    3344.5582 
  337000    282.91814   -902.09201            0   -897.41104    5362.1109    13.257281    13.378329    13.045799    1.3424794    449.35215    3342.6491 
  338000    294.92019   -902.20958            0   -897.33004    4849.7078    13.257281    13.378329    13.045799    1.6532063    451.27216    3340.9309 
  339000    290.99621   -902.99828            0   -898.18366    3657.9265    13.257281    13.378329    13.045799    1.4745798    453.18355    3339.1474 
  340000    256.20998   -902.52641            0   -898.28734    4033.8689    13.257281    13.378329    13.045799    1.3658181    455.08449    3337.2863 
  341000    311.87837   -902.55588            0   -897.39576    5129.8359    13.257281    13.378329    13.045799    1.0163757    456.97667    3335.3608 
  342000    298.82211   -902.12256            0   -897.17846    3711.9714    13.257281    13.378329    13.045799    1.5928385    458.86139    3333.3815 
  343000     282.6628    -902.8814            0   -898.20466    3635.0165    13.257281    13.378329    13.045799    1.1716666    460.75114    3331.4393 
  344000    304.63482    -902.1612            0   -897.12092    6716.0375    13.257281    13.378329    13.045799     1.513033     462.6605    3329.6387 
  345000      317.369   -902.59404            0   -897.34307    5087.1026    13.257281    13.378329    13.045799    1.3161853    464.54699    3327.6733 
  346000    262.92926   -902.32304            0   -897.97279    4377.4285    13.257281    13.378329    13.045799    1.3437679    466.44766    3325.8097 
  347000    327.16607   -902.07541            0   -896.66235    6397.1888    13.257281    13.378329    13.045799    1.8224548    468.33833    3323.8749 
  348000    269.22005   -902.16983            0    -897.7155    5244.4157    13.257281    13.378329    13.045799    1.3072408    470.22732    3321.9285 
  349000    312.54005   -902.86393            0   -897.69286    5939.2067    13.257281    13.378329    13.045799    1.6780203    472.11219    3319.9536 
  350000    322.46692   -901.63965            0   -896.30434    6975.6201    13.257281    13.378329    13.045799    1.4903721    474.01389    3318.0973 
  351000    329.48617   -901.98656            0   -896.53511    5976.5404    13.257281    13.378329    13.045799     1.661247    475.89978    3316.1304 
  352000    296.14063   -902.57547            0   -897.67573    3918.2442    13.257281    13.378329    13.045799    1.2723225    477.79921     3314.258 
  353000    291.95028   -902.63467            0   -897.80427      5919.74    13.257281    13.378329    13.045799    1.4617355    479.68528    3312.2932 
  354000    339.03092   -902.33825            0   -896.72889     5650.513    13.257281    13.378329    13.045799    1.3342851    481.57547    3310.3574 
  355000     265.2028   -901.88911            0   -897.50125     4660.909    13.257281    13.378329    13.045799    2.0532377    483.46603    3308.4244 
  356000    269.34282   -902.00453            0   -897.54818    4130.3786    13.257281    13.378329    13.045799    1.4778487    485.36529     3306.551 
  357000    329.21394   -902.00371            0   -896.55677    5410.9647    13.257281    13.378329    13.045799    1.2939437    487.25741    3304.6291 
  358000    301.21345   -902.44765            0   -897.46399    3746.0149    13.257281    13.378329    13.045799    1.5281788    489.14388    3302.6691 
  359000    285.24196   -902.42754            0   -897.70813    3454.9572    13.257281    13.378329    13.045799    1.2802357    491.03305    3300.7279 
  360000    332.96494   -901.90022            0   -896.39121    6851.9979    13.257281    13.378329    13.045799    1.3949159    492.91789    3298.7582 
  361000    329.12006   -902.55561            0   -897.11022    3894.6229    13.257281    13.378329    13.045799    1.6061727    494.80587      3296.81 
  362000     295.0207   -902.55663            0   -897.67543    4248.6771    13.257281    13.378329    13.045799    1.4502709    496.69336     3294.859 
  363000    291.57152   -902.61533            0   -897.79119    5213.1131    13.257281    13.378329    13.045799    1.6980727    498.59088    3292.9748 
  364000    344.58906   -902.40903            0   -896.70771    5172.5776    13.257281    13.378329    13.045799    1.5110968    500.47752    3291.0188 
  365000    287.94337   -902.64048            0   -897.87637    5755.4737    13.257281    13.378329    13.045799    1.4927773    502.36828    3289.0905 
  366000    283.92355   -902.26723            0   -897.56963    3792.7917    13.257281    13.378329    13.045799    1.5436713    504.25655    3287.1461 
  367000    333.48377   -902.15683            0   -896.63924    6557.0418    13.257281    13.378329    13.045799    1.6164649    506.14111    3285.1781 
  368000    329.96701   -902.44743            0   -896.98803    5638.6897    13.257281    13.378329    13.045799    1.6112969     508.0264    3283.2154 
  369000    268.03924   -902.25435            0   -897.81956    4634.5574    13.257281    13.378329    13.045799    1.4383391    509.91651    3281.2843 
  370000    336.93222   -902.44442            0   -896.86977    4281.0854    13.257281    13.378329    13.045799    1.4365952    511.81219    3279.3892 
  371000    310.74971   -902.40402            0   -897.26258    4095.3093    13.257281    13.378329    13.045799     1.388161    513.70749    3277.4917 
  372000    298.16686   -902.62247            0   -897.68921    4354.0075    13.257281    13.378329    13.045799    1.2058498    515.59396    3275.5381 
  373000    313.10821   -902.12658            0   -896.94612    6016.6711    13.257281    13.378329    13.045799    2.2271871    517.48366    3273.6054 
  374000    293.83978   -902.43554            0   -897.57387    4801.1069    13.257281    13.378329    13.045799    1.5714719    519.37123    3271.6597 
  375000    310.06998   -903.02033            0   -897.89013    4877.1606    13.257281    13.378329    13.045799    1.1300701    521.25695    3269.7027 
  376000    337.88017   -902.50729            0   -896.91696    6000.0742    13.257281    13.378329    13.045799    1.5218806    523.14231     3267.744 
  377000     308.6063   -902.42593            0   -897.31995    5571.9406    13.257281    13.378329    13.045799    1.6294178    525.03096    3265.8063 
  378000    272.65819    -902.4212            0   -897.90999    3805.9158    13.257281    13.378329    13.045799    1.3559909    526.92279    3263.8886 
  379000     285.4168    -902.7323            0   -898.00999    3415.0254    13.257281    13.378329    13.045799    1.5668918    528.81702     3261.986 
  380000    326.69289   -902.33792            0   -896.93268    5477.6975    13.257281    13.378329    13.045799    1.4950566    530.70679     3260.056 
  381000    294.46259   -902.92346            0   -898.05149    3239.0235    13.257281    13.378329    13.045799    1.2417814    532.59467    3258.1147 
  382000    295.40016   -902.81167            0   -897.92418    3566.9247    13.257281    13.378329    13.045799    1.1750956    534.48443    3256.1853 
  383000    330.78531   -902.67227            0   -897.19933    5899.8073    13.257281    13.378329    13.045799    1.7114482    536.37179    3254.2416 
  384000    298.17937   -902.47174            0   -897.53827    4241.4368    13.257281    13.378329    13.045799    1.3817716    538.25617    3252.2802 
  385000    277.18497   -902.68079            0   -898.09468     3473.876    13.257281    13.378329    13.045799    1.3129729    540.14053    3250.3194 
  386000    322.53979   -902.34113            0   -897.00462      4183.66    13.257281    13.378329    13.045799    1.3343268    542.04733    3248.4934 
  387000    335.79735   -903.04883            0   -897.49296    4596.0557    13.257281    13.378329    13.045799    1.0815729    543.94132    3246.5905 
  388000    266.84466   -902.42928            0   -898.01426    4092.0439    13.257281    13.378329    13.045799     1.333534    545.84952    3244.7721 
  389000    292.35113   -902.59437            0   -897.75733    4980.0387    13.257281    13.378329    13.045799    1.4172092    547.73584    3242.8236 
  390000    292.34972   -901.78731            0    -896.9503    5055.8774    13.257281    13.378329    13.045799     1.559443    549.63243     3240.936 
  391000    301.12869   -903.13927            0   -898.15701    4649.0029    13.257281    13.378329    13.045799    1.4246982    551.52293    3239.0127 
  392000    289.40998   -902.52997            0   -897.74159    6029.1535    13.257281    13.378329    13.045799    1.6571179     553.4269    3237.1683 
  393000    309.01495   -902.42094            0    -897.3082    3996.8507    13.257281    13.378329    13.045799    1.5737024    555.31297    3235.2193 
  394000    279.12677   -902.23394            0    -897.6157    4116.3443    13.257281    13.378329    13.045799     1.321417    557.21302    3233.3517 
  395000    273.36195   -902.53673            0   -898.01388     5517.412    13.257281    13.378329    13.045799    1.5839844    559.10843    3231.4572 
  396000    329.29667   -902.33118            0   -896.88287    6145.4709    13.257281    13.378329    13.045799    1.3025509    561.00145    3229.5489 
  397000    300.45042    -902.4914            0   -897.52036    6233.1594    13.257281    13.378329    13.045799    1.1817321    562.89469     3227.642 
  398000    305.24604    -902.5957            0   -897.54531    4622.5997    13.257281    13.378329    13.045799    1.1532784    564.78209    3225.7018 
  399000    345.24481   -902.78854            0   -897.07636    4771.0432    13.257281    13.378329    13.045799    1.5824127    566.68714    3223.8623 
  400000     322.6965   -901.95367            0   -896.61456     5941.089    13.257281    13.378329    13.045799    1.7226192    568.57227    3221.9096 
  401000     293.1426   -902.65216            0   -897.80203    6319.2566    13.257281    13.378329    13.045799    1.4285432    570.45867    3219.9644 
  402000    340.62017   -902.76903            0   -897.13337    5154.0779    13.257281    13.378329    13.045799    1.6491542    572.34473    3218.0177 
  403000    316.91929    -901.8519            0   -896.60837    6573.4965    13.257281    13.378329    13.045799    1.9290035     574.2371    3216.1068 
  404000    314.68175   -902.95571            0   -897.74921    4731.4286    13.257281    13.378329    13.045799    1.3678517    576.13086    3214.2038 
  405000    348.76804   -902.79351            0   -897.02304    4346.8355    13.257281    13.378329    13.045799    1.4385727    578.01793    3212.2636 
  406000    297.83061   -902.26212            0   -897.33442    6226.2732    13.257281    13.378329    13.045799    1.9610787    579.90517    3210.3247 
  407000    291.42014   -902.79439            0   -897.97276    4264.8032    13.257281    13.378329    13.045799    1.4803876    581.79491       3208.4 
  408000    317.61256   -902.23131            0   -896.97631    5817.8415    13.257281    13.378329    13.045799    1.2226375    583.68443    3206.4742 
  409000    308.67055    -902.4622            0   -897.35516    5331.8181    13.257281    13.378329    13.045799    1.4860306    585.58264    3204.5963 
  410000     297.6998   -902.74098            0   -897.81545    5396.9012    13.257281    13.378329    13.045799    1.1107296    587.46952    3202.6564 
  411000    287.49959   -903.13596            0   -898.37919    3812.9034    13.257281    13.378329    13.045799      1.51724    589.36239    3200.7494 
  412000    312.75298   -902.32709            0    -897.1525    5221.3531    13.257281    13.378329    13.045799    1.2898457    591.24325    3198.7776 
  413000     292.2304   -902.44178            0   -897.60674    5521.2651    13.257281    13.378329    13.045799    1.4791587    593.12481    3196.8101 
  414000    268.84626   -902.80882            0   -898.36067    4584.7914    13.257281    13.378329    13.045799    1.5629269    595.00638    3194.8432 
  415000    278.50736   -902.24212            0   -897.63413    5772.6763    13.257281    13.378329    13.045799    1.2576498    596.89007    3192.8882 
  416000    307.92643   -902.18471            0   -897.08998    5780.8586    13.257281    13.378329    13.045799    1.3995078    598.77435    3190.9367 
  417000     293.9334   -902.70873            0   -897.84551    4685.4785    13.257281    13.378329    13.045799    1.4721718    600.66993    3189.0457 
  418000    292.30388   -902.67376            0   -897.83751    4543.6886    13.257281    13.378329    13.045799    1.4515427    602.55462    3187.0971 
  419000    296.21274   -901.98679            0   -897.08586    5405.9567    13.257281    13.378329    13.045799    1.2503301    604.44317    3185.1692 
  420000    315.94487   -903.03897            0   -897.81157    4568.7027    13.257281    13.378329    13.045799    1.1753382     606.3353    3183.2603 
  421000    276.52127   -903.00712            0     -898.432    3905.5093    13.257281    13.378329    13.045799    1.1932391    608.22838    3181.3566 
  422000    344.85939   -902.87633            0   -897.17053     4692.605    13.257281    13.378329    13.045799    1.1226133    610.11754    3179.4324 
  423000    312.96138   -902.62767            0   -897.44964     3895.835    13.257281    13.378329    13.045799    1.1638425    612.00742    3177.5122 
  424000    290.24255   -903.06477            0   -898.26262    3670.8952    13.257281    13.378329    13.045799    1.7224337    613.88957    3175.5522 
  425000    307.63001   -902.73298            0   -897.64315    5540.2451    13.257281    13.378329    13.045799    1.1956387    615.76957    3173.5816 
  426000    283.15905   -901.75867            0   -897.07372    4784.3297    13.257281    13.378329    13.045799    1.3530303     617.6475    3171.6009 
  427000    289.13506   -902.04523            0   -897.26141     6557.919    13.257281    13.378329    13.045799    1.2370344    619.52804    3169.6343 
  428000    287.80153    -902.8454            0   -898.08364    5029.7989    13.257281    13.378329    13.045799    1.2894153    621.41539    3167.7028 
  429000    286.69624   -901.54314            0   -896.79967    5947.5204    13.257281    13.378329    13.045799     1.300467    623.29974    3165.7564 
  430000    307.68887   -902.42669            0   -897.33589    5283.0834    13.257281    13.378329    13.045799    1.1879029    625.25521    3164.1703 
  431000    300.72136   -902.80862            0   -897.83309    4517.7856    13.257281    13.378329    13.045799    1.6214988    627.14148     3162.233 
  432000    334.23131   -902.31568            0   -896.78572    5356.0844    13.257281    13.378329    13.045799    1.6361628    629.03228    3160.3188 
  433000    289.38058   -902.28303            0   -897.49514     6605.012    13.257281    13.378329    13.045799    1.0980443    630.92385    3158.4086 
  434000    272.45475   -902.29526            0   -897.78742    4764.5868    13.257281    13.378329    13.045799    1.3669142    632.81388    3156.4908 
  435000    291.96038   -901.87781            0   -897.04724    7006.7909    13.257281    13.378329    13.045799    1.9608898    634.70692    3154.5881 
  436000    336.58847   -901.77474            0   -896.20579    4999.9393    13.257281    13.378329    13.045799    1.5366329    636.59703     3152.671 
  437000    310.78443   -902.63103            0   -897.48901    6526.5577    13.257281    13.378329    13.045799    1.6266619    638.49767     3150.806 
  438000    279.87274   -902.56323            0   -897.93265    6015.9791    13.257281    13.378329    13.045799    1.2618546    640.38591    3148.8798 
  439000     330.7774   -902.19322            0    -896.7204    5222.4019    13.257281    13.378329    13.045799    1.6032455    642.27642     3146.965 
  440000    271.45417   -902.07332            0   -897.58203    5337.7362    13.257281    13.378329    13.045799    1.0955802    644.16212    3145.0268 
  441000    296.02408   -902.57264            0   -897.67484    5060.4035    13.257281    13.378329    13.045799    1.4962261    646.04348    3143.0678 
  442000    295.17985   -901.85902            0   -896.97518    8021.8405    13.257281    13.378329    13.045799    1.0609077    647.92929    3141.1309 
  443000     313.2447   -901.61435            0   -896.43162    5520.2761    13.257281    13.378329    13.045799    1.4597843     649.8138    3139.1879 
  444000    289.67763   -902.55231            0   -897.75951    5152.0055    13.257281    13.378329    13.045799    1.8314981    651.70278    3137.2669 
  445000    311.83011   -902.40667            0   -897.24735     6009.636    13.257281    13.378329    13.045799    1.6040974    653.59425    3135.3579 
  446000    311.09461   -901.93895            0   -896.79179    6319.4933    13.257281    13.378329    13.045799    1.4516195    655.48573    3133.4491 
  447000    311.57485   -902.92417            0   -897.76907    5001.7133    13.257281    13.378329    13.045799    1.4358615    657.39074    3131.6049 
  448000    321.81779   -902.41508            0   -897.09051    4008.4353    13.257281    13.378329    13.045799    1.3096037    659.27776    3129.6749 
  449000    276.01397   -901.94083            0    -897.3741    5755.5259    13.257281    13.378329    13.045799     1.614956    661.16516     3127.747 
  450000    272.30744   -902.49685            0   -897.99144    4999.8206    13.257281    13.378329    13.045799    1.2775431    663.05054    3125.8097 
  451000    310.61582    -902.2197            0   -897.08047    6084.7433    13.257281    13.378329    13.045799    1.3458515    664.95095    3123.9434 
  452000    294.52124   -902.29481            0   -897.42187    6812.7931    13.257281    13.378329    13.045799    1.5375614    666.85084    3122.0744 
  453000    305.66795   -902.84605            0   -897.78868    4488.7881    13.257281    13.378329    13.045799    1.5597446    668.76362    3120.2654 
  454000    283.12972   -902.60481            0   -897.92034    3885.5624    13.257281    13.378329    13.045799    1.2884337     670.6535    3118.3493 
  455000    328.23996   -902.32892            0   -896.89809    5120.9541    13.257281    13.378329    13.045799    1.3070541    672.55013    3116.4647 
  456000    292.22479   -902.97837            0   -898.14342    5375.0876    13.257281    13.378329    13.045799    1.2143837    674.44598    3114.5764 
  457000    325.45498   -903.19276            0   -897.80801    4159.3797    13.257281    13.378329    13.045799    1.0759894    676.34937    3112.7227 
  458000    308.42614    -902.1855            0    -897.0825    5978.4361    13.257281    13.378329    13.045799    1.3645584    678.23909    3110.8061 
  459000    270.31839    -902.7703            0    -898.2978    4268.7417    13.257281    13.378329    13.045799    1.3887662    680.12274    3108.8619 
  460000    310.40336   -902.85224            0   -897.71653    4279.8779    13.257281    13.378329    13.045799    1.1627701    682.01235    3106.9451 
  461000    292.32295   -902.09679            0   -897.26022    4745.2489    13.257281    13.378329    13.045799    1.3545243    683.89912    3105.0157 
  462000    271.14542   -902.72576            0   -898.23958     4960.089    13.257281    13.378329    13.045799    1.1545016    685.78503    3103.0825 
  463000    258.76331   -902.41066            0   -898.12935    4484.5897    13.257281    13.378329    13.045799    1.2655721    687.67616    3101.1732 
  464000    325.41387   -902.79652            0   -897.41245    5366.7426    13.257281    13.378329    13.045799    1.2242443    689.57963    3099.3195 
  465000    295.16112    -901.9151            0   -897.03157    5108.6115    13.257281    13.378329    13.045799    1.4476293    691.46426     3097.381 
  466000    277.12465   -902.49546            0   -897.91035     4750.905    13.257281    13.378329    13.045799    1.5132564       693.35    3095.4478 
  467000     306.1495   -902.65159            0   -897.58626    6480.2871    13.257281    13.378329    13.045799    1.4181688     695.2363    3093.5174 
  468000    322.64966   -902.30129            0   -896.96295    4220.1254    13.257281    13.378329    13.045799    1.4855917    697.12921    3091.6165 
  469000    278.86571   -902.32521            0   -897.71129    4857.1356    13.257281    13.378329    13.045799    1.4413655     699.0198    3089.7054 
  470000    301.98465   -902.14189            0   -897.14546    5433.4903    13.257281    13.378329    13.045799     1.279374    700.90432    3087.7677 
  471000    353.63913   -902.68965            0   -896.83858     6116.769    13.257281    13.378329    13.045799    1.3956992     702.7956    3085.8599 
  472000    296.59643   -902.70257            0   -897.79529      4866.82    13.257281    13.378329    13.045799    1.0595342    704.69178    3083.9737 
  473000    347.07539   -902.56716            0   -896.82469    5698.2675    13.257281    13.378329    13.045799    1.4315267    706.57973    3082.0515 
  474000    322.79158   -902.27671            0   -896.93603    5251.8018    13.257281    13.378329    13.045799    1.6271647    708.46659    3080.1248 
  475000    292.57652   -902.38491            0   -897.54414    5467.6977    13.257281    13.378329    13.045799    1.2776694    710.36337    3078.2413 
  476000    302.24663   -902.86062            0   -897.85986    5862.8198    13.257281    13.378329    13.045799    1.2719595    712.24921    3076.3104 
  477000    334.05361   -902.62327            0   -897.09625    5263.3237    13.257281    13.378329    13.045799    1.3036437    714.14764     3074.434 
  478000    291.79103   -902.14565            0   -897.31788     7363.123    13.257281    13.378329    13.045799    1.4748492    716.03167    3072.4957 
  479000    290.26788   -902.76892            0   -897.96635    3594.9662    13.257281    13.378329    13.045799    1.7101126    717.97301    3070.8028 
  480000    323.05718   -902.49468            0   -897.14961    6145.9663    13.257281    13.378329    13.045799    1.1699955    719.85969    3068.8755 
  481000    312.05179    -902.5227            0   -897.35971    3131.9409    13.257281    13.378329    13.045799    1.1058463    721.74472    3066.9415 
  482000    315.22023   -902.74382            0   -897.52841    4181.3301    13.257281    13.378329    13.045799    1.2322737    723.63252    3065.0194 
  483000    292.45871   -902.61688            0   -897.77806    4983.1376    13.257281    13.378329    13.045799    1.4146058    725.51928    3063.0931 
  484000    329.09794   -902.51159            0   -897.06656     4831.916    13.257281    13.378329    13.045799    1.2916065     727.4045    3061.1606 
  485000    334.93272   -902.84208            0   -897.30052    6282.5151    13.257281    13.378329    13.045799    1.5545464    729.28876    3059.2243 
  486000    289.43755   -902.75801            0   -897.96918    4096.5588    13.257281    13.378329    13.045799    1.2639991    731.17266    3057.2867 
  487000    298.40641   -902.03988            0   -897.10266     6355.765    13.257281    13.378329    13.045799    1.4081477    733.06813    3055.3977 
  488000    320.88085   -902.60322            0   -897.29415    5042.4433    13.257281    13.378329    13.045799    1.9751051    734.95478    3053.4719 
  489000    293.82903   -902.55682            0   -897.69533    4517.1112    13.257281    13.378329    13.045799    1.3534025    736.85403    3051.5985 
[...]
 1979000    297.07116   -902.68709            0   -897.77196     4692.429    13.257281    13.378329    13.045799    1.4928557    3554.1068     228.8701 
 1980000    305.27969    -902.6333            0   -897.58236    5650.8905    13.257281    13.378329    13.045799    1.2994804     3555.989    226.97802 
 1981000    325.92799   -902.14486            0   -896.75229    4743.9547    13.257281    13.378329    13.045799    1.6449959    3557.8759    225.08624 
 1982000    310.55882   -902.59592            0   -897.45763    3107.4183    13.257281    13.378329    13.045799    1.4066664    3559.7606    223.19434 
 1983000    286.07928   -902.28476            0   -897.55149    5590.9734    13.257281    13.378329    13.045799    1.3114205     3561.648    221.30261 
 1984000    297.05824   -901.92326            0   -897.00834    3631.5704    13.257281    13.378329    13.045799    1.3546714    3563.5348    219.41085 
 1985000    304.36398   -902.56224            0   -897.52645    6029.7075    13.257281    13.378329    13.045799    1.5263068    3565.4138    217.51862 
 1986000    276.35334   -902.52116            0   -897.94881    5385.1984    13.257281    13.378329    13.045799    1.1830741    3567.2991    215.62677 
 1987000    293.40692   -902.04735            0   -897.19285    5022.3885    13.257281    13.378329    13.045799    1.2354733    3569.1788    213.73461 
 1988000    300.26004   -902.44538            0   -897.47749    4861.6487    13.257281    13.378329    13.045799    1.2876624    3571.0614    211.84262 
 1989000    278.73983   -902.74254            0   -898.13071    4073.1631    13.257281    13.378329    13.045799    1.4204044    3572.9404    209.95044 
 1990000    265.46238   -901.90721            0   -897.51505    6488.1832    13.257281    13.378329    13.045799    1.4911256    3574.8236    208.05852 
 1991000    293.08688   -901.96478            0   -897.11557    3611.3312    13.257281    13.378329    13.045799    1.5686098    3576.7132    206.16697 
 1992000    266.92985   -902.73639            0   -898.31996    3214.5239    13.257281    13.378329    13.045799    1.1561245    3578.5968    204.27508 
 1993000    327.43081   -902.26688            0   -896.84944    5351.7353    13.257281    13.378329    13.045799    1.0734491    3580.4916    202.38384 
 1994000    285.71822   -902.34496            0   -897.61767    4030.0179    13.257281    13.378329    13.045799    1.2681359    3582.3793    200.49219 
 1995000    297.31579   -902.76505            0   -897.84588    3321.2654    13.257281    13.378329    13.045799    1.3658233    3584.2682    198.60061 
 1996000    324.11208   -902.08387            0   -896.72134    4582.3499    13.257281    13.378329    13.045799    1.5197497     3586.155    196.70892 
 1997000    309.68319   -902.57532            0   -897.45152    4639.0126    13.257281    13.378329    13.045799    1.2349533    3588.0435    194.81733 
 1998000    311.40232   -902.73503            0   -897.58279    4489.3497    13.257281    13.378329    13.045799    1.2385668    3589.9316    192.92572 
 1999000    353.74291   -902.33415            0   -896.48136    4043.3942    13.257281    13.378329    13.045799    1.5790662    3591.8174      191.034 
 2000000    314.80508    -902.6449            0   -897.43636     5622.376    13.257281    13.378329    13.045799    1.2804399    3593.7021    189.14222 
 2001000    312.75115   -902.84188            0   -897.66731    5361.4259    13.257281    13.378329    13.045799    1.5268183    3595.5889    187.25055 
 2002000    349.32784   -902.16519            0   -896.38546    6801.6887    13.257281    13.378329    13.045799    1.5200003    3597.4756    185.35889 
 2003000    312.54474   -902.60032            0   -897.42917     5012.892    13.257281    13.378329    13.045799    1.7692023     3599.366    183.46742 
 2004000    271.85488   -902.06594            0   -897.56802    6260.4932    13.257281    13.378329    13.045799    2.1327832     3601.251    181.57568 
 2005000    315.04745   -902.25618            0   -897.04363    6230.2808    13.257281    13.378329    13.045799    1.2475575    3603.1483    179.68456 
 2006000     293.1196   -902.01629            0   -897.16654    5470.3938    13.257281    13.378329    13.045799    1.3673505    3605.0351    177.79292 
 2007000    303.29269   -903.01118            0   -897.99311    5934.9005    13.257281    13.378329    13.045799     1.333016    3606.9329    175.90181 
 2008000    338.49537   -902.55456            0   -896.95405     3974.975    13.257281    13.378329    13.045799    1.4452547    3608.8159    174.00999 
 2009000    274.84418   -901.71158            0    -897.1642    4823.2887    13.257281    13.378329    13.045799    1.2466004     3610.697    172.11809 
 2010000     271.4082   -902.26712            0   -897.77659     3812.991    13.257281    13.378329    13.045799    1.3238292    3612.5794    170.22625 
 2011000    268.43978   -902.15107            0   -897.70965    6279.1806    13.257281    13.378329    13.045799    1.3267991    3614.4671    168.33468 
 2012000    304.56859   -901.82961            0   -896.79043    6537.7766    13.257281    13.378329    13.045799    1.6409983    3616.3564    166.44318 
 2013000    299.00055   -902.91038            0   -897.96333    3942.7985    13.257281    13.378329    13.045799    1.0553449    3618.2368    164.55128 
 2014000    309.42968     -902.632            0    -897.5124    5260.3182    13.257281    13.378329    13.045799    1.3543796    3620.1299    162.65996 
 2015000    327.63611   -902.23361            0   -896.81277    5417.0077    13.257281    13.378329    13.045799     1.544762      3622.01    160.76807 
 2016000    285.02928   -902.27318            0   -897.55729    4216.3056    13.257281    13.378329    13.045799    1.4942807    3623.8945    158.87638 
 2017000    312.72589   -903.06968            0   -897.89554    3997.1133    13.257281    13.378329    13.045799    1.3936959    3625.7861      156.985 
 2018000    286.29663   -901.49194            0   -896.75508     6043.391    13.257281    13.378329    13.045799    1.7143487    3627.6833    155.09386 
 2019000    285.04196   -902.11986            0   -897.40376    4512.5745    13.257281    13.378329    13.045799     1.595155    3629.5721    153.20237 
 2020000    285.81803   -902.41682            0   -897.68788    3482.7748    13.257281    13.378329    13.045799    1.2123061      3631.47    151.31125 
 2021000    338.81456   -902.02042            0   -896.41463    5163.0339    13.257281    13.378329    13.045799    1.5846406    3633.3589    149.41976 
 2022000     306.2246   -902.58762            0   -897.52105    3966.4452    13.257281    13.378329    13.045799    2.0272377    3635.2603    147.52877 
 2023000    316.98767   -902.86809            0   -897.62344    3840.3525    13.257281    13.378329    13.045799    1.1054752    3637.1739    145.63827 
 2024000     335.6208   -901.78673            0   -896.23378    4835.4904    13.257281    13.378329    13.045799    1.8449741     3639.062    143.74673 
 2025000    340.36458   -902.79435            0   -897.16292    5536.6847    13.257281    13.378329    13.045799    1.6245894     3640.967    141.85586 
 2026000    277.22013   -902.26895            0   -897.68226    4117.0622    13.257281    13.378329    13.045799    1.3636143    3642.8566    139.96438 
 2027000    309.79148   -902.48231            0   -897.35671     4745.207    13.257281    13.378329    13.045799    1.6136293    3644.7407    138.07269 
 2028000    328.64305   -902.25623            0   -896.81873    6262.3243    13.257281    13.378329    13.045799    1.8513035    3646.6233    136.18095 
 2029000     296.4118   -902.80531            0   -897.90108    3895.3477    13.257281    13.378329    13.045799    1.2908379    3648.5092    134.28935 
 2030000    298.03433    -902.1838            0   -897.25273     5159.379    13.257281    13.378329    13.045799    2.1121233    3650.3911     132.3976 
 2031000    340.11458   -902.07971            0   -896.45241      6615.08    13.257281    13.378329    13.045799    1.3458839     3652.286    130.50633 
 2032000    302.18328    -902.5957            0   -897.59599      5330.95    13.257281    13.378329    13.045799    1.2455878    3654.1677     128.6146 
 2033000    271.55066   -902.28011            0   -897.78722    4457.9127    13.257281    13.378329    13.045799    1.3475414    3656.0582    126.72318 
 2034000    343.28589   -902.24454            0   -896.56477    6313.4031    13.257281    13.378329    13.045799    1.4652741    3657.9424    124.83154 
 2035000    334.54989   -902.81372            0   -897.27849    6609.7667    13.257281    13.378329    13.045799    1.6810206    3659.8248    122.93985 
 2036000    295.82101   -902.59197            0   -897.69752    4390.3478    13.257281    13.378329    13.045799    1.2834924    3661.7062    121.04814 
 2037000    251.98324   -901.96134            0    -897.7922    5439.9436    13.257281    13.378329    13.045799    1.3761812    3663.5871    119.15642 
 2038000    312.93849   -901.96659            0   -896.78893    4488.0063    13.257281    13.378329    13.045799    1.6833302    3665.5443    117.26716 
 2039000      279.185   -902.62195            0   -898.00275    5803.7328    13.257281    13.378329    13.045799     1.338716    3667.4297    115.37556 
 2040000    287.18425   -902.40211            0   -897.65056    4726.2549    13.257281    13.378329    13.045799    1.3957661    3669.3124    113.48389 
 2041000     313.0475   -902.28197            0    -897.1025    5347.6837    13.257281    13.378329    13.045799    1.5072306    3671.2269    111.59319 
 2042000    278.23207   -902.97809            0   -898.37466    3831.0196    13.257281    13.378329    13.045799    1.2844564    3673.1186    109.70179 
 2043000    310.06266   -902.51173            0   -897.38165    3969.9574    13.257281    13.378329    13.045799    1.3583847     3675.001    107.81012 
 2044000    286.26626   -902.01135            0   -897.27499    4691.2621    13.257281    13.378329    13.045799    1.2519178    3676.8903    105.91865 
 2045000    268.64606   -903.03392            0   -898.58909    3936.6677    13.257281    13.378329    13.045799    1.4146903    3678.7758    104.02708 
 2046000    287.32395   -902.64697            0   -897.89311    4946.6808    13.257281    13.378329    13.045799    1.4810344    3680.6742    102.13587 
 2047000    306.06879   -902.22854            0   -897.16454    5621.8104    13.257281    13.378329    13.045799    1.2853295    3682.5555    100.24419 
 2048000    293.06736   -902.57499            0    -897.7261    5092.6207    13.257281    13.378329    13.045799     1.474758    3684.4675    98.353341 
 2049000    261.69142   -902.33341            0   -898.00364    5000.7979    13.257281    13.378329    13.045799    1.3066107    3686.3523    96.461758 
 2050000    348.62053   -902.88301            0   -897.11498    5669.8022    13.257281    13.378329    13.045799    1.3893964    3688.2429    94.570331 
 2051000    279.97396   -902.33042            0   -897.69817    6898.3397    13.257281    13.378329    13.045799    1.7350567    3690.1279    92.678763 
 2052000    241.67346   -902.84051            0   -898.84195    3803.0295    13.257281    13.378329    13.045799    1.3542834    3692.0342    90.787727 
 2053000    288.10286   -902.49909            0   -897.73234    4706.0094    13.257281    13.378329    13.045799    1.2443583    3693.9198    88.896176 
 2054000    296.71365   -902.03089            0   -897.12168    5826.2469    13.257281    13.378329    13.045799    2.1966173    3695.8115    87.004773 
 2055000    286.42218   -902.46079            0   -897.72185    5223.2411    13.257281    13.378329    13.045799    1.5581817    3697.7001    85.113302 
 2056000    282.65366   -902.71054            0   -898.03395    4428.0234    13.257281    13.378329    13.045799    1.1969491     3699.592    83.221907 
 2057000    328.78188   -902.51915            0   -897.07936    5254.5925    13.257281    13.378329    13.045799    1.6104157     3701.479    81.330402 
 2058000    302.47365   -902.76838            0   -897.76386    3783.7259    13.257281    13.378329    13.045799    1.4088067    3703.3635     79.43885 
 2059000    269.19746   -902.68581            0   -898.23186    4970.8146    13.257281    13.378329    13.045799    1.6263504    3705.2529    77.547407 
 2060000    317.59577   -902.21891            0   -896.96419    5548.7851    13.257281    13.378329    13.045799    1.3696821    3707.1472    75.656064 
 2061000    307.30181   -902.76721            0   -897.68281    3075.3676    13.257281    13.378329    13.045799    1.3027331    3709.0408    73.764708 
 2062000    294.05572   -902.84711            0   -897.98187     3651.758    13.257281    13.378329    13.045799    1.3494032    3710.9214    71.873095 
 2063000    315.87585   -902.72339            0   -897.49713    2219.2078    13.257281    13.378329    13.045799    1.8558043    3712.8027    69.981508 
 2064000    323.54714   -902.36672            0   -897.01354    3297.1208    13.257281    13.378329    13.045799    1.3173573    3714.6908    68.090056 
 2065000    304.00479   -902.72593            0   -897.69608    3904.1092    13.257281    13.378329    13.045799    1.5766756    3716.5838    66.198694 
 2066000    317.06913   -903.13816            0   -897.89216    3668.1605    13.257281    13.378329    13.045799    1.2967704      3718.47    64.307213 
 2067000    319.87782   -902.15388            0   -896.86141    4787.5878    13.257281    13.378329    13.045799    1.4987839    3720.3507    62.415645 
 2068000    312.84064   -902.83625            0   -897.66021    5208.3207    13.257281    13.378329    13.045799     1.197024    3722.2304    60.524072 
 2069000    314.01012   -902.60883            0   -897.41344    4736.9749    13.257281    13.378329    13.045799    1.1227746     3724.118    58.632635 
 2070000    342.82456   -902.44026            0   -896.76812    4816.6943    13.257281    13.378329    13.045799    1.5470431    3726.0032    56.741165 
 2071000    297.71421   -902.66735            0   -897.74158    4439.4384    13.257281    13.378329    13.045799    1.5694622    3727.8974    54.849834 
 2072000    312.89179   -902.20563            0   -897.02874    4463.9215    13.257281    13.378329    13.045799    1.4013218    3729.7917    52.958502 
 2073000     309.7586   -901.71753            0   -896.59248    5930.6479    13.257281    13.378329    13.045799    1.6354384    3731.6942     51.06728 
 2074000    299.05864   -902.39799            0   -897.44998    4439.7142    13.257281    13.378329    13.045799    1.4747776     3733.584    49.175878 
 2075000    297.10872   -902.83469            0   -897.91894    3226.8642    13.257281    13.378329    13.045799    1.3235194    3735.4717    47.284452 
 2076000    312.55088   -902.04278            0   -896.87153    5515.3114    13.257281    13.378329    13.045799    1.3650998    3737.3656    45.393104 
 2077000    308.33489   -902.64956            0   -897.54807    4138.4703    13.257281    13.378329    13.045799    1.2125267    3739.2558    43.501711 
 2078000     308.8207   -902.94781            0   -897.83828    5032.9234    13.257281    13.378329    13.045799    1.8131364    3741.1405    41.610258 
 2079000    307.02515     -902.256            0   -897.17618    4115.3611    13.257281    13.378329    13.045799    1.6516539    3743.0271    39.718832 
 2080000    327.19397   -901.67715            0   -896.26363    6486.3659    13.257281    13.378329    13.045799     1.685219    3744.9145     37.82742 
 2081000      314.854   -902.82017            0   -897.61082     6098.842    13.257281    13.378329    13.045799    1.6257714    3746.8029     35.93602 
 2082000    283.90563   -902.26014            0   -897.56284     5665.093    13.257281    13.378329    13.045799    1.6797436    3748.6989    34.044692 
 2083000    335.39527   -901.98868            0   -896.43946     5209.721    13.257281    13.378329    13.045799    1.4286766    3750.5799    32.153231 
 2084000    312.18546   -902.52555            0   -897.36035     5411.056    13.257281    13.378329    13.045799    1.5129448     3752.462    30.261791 
 2085000    307.45733   -902.68969            0   -897.60272    5100.6501    13.257281    13.378329    13.045799    1.3321477    3754.3532    28.370427 
 2086000    287.70596   -902.02761            0   -897.26743    4263.4834    13.257281    13.378329    13.045799    1.5399388     3756.239    26.479026 
 2087000    335.65727   -902.51956            0   -896.96601    7036.8996    13.257281    13.378329    13.045799    1.3408383    3758.1411    24.587737 
 2088000    297.69574   -902.98854            0   -898.06307    4966.3341    13.257281    13.378329    13.045799    1.0682321    3760.0393    22.696415 
 2089000    291.84055   -902.13672            0   -897.30814     5519.781    13.257281    13.378329    13.045799    1.2331354    3761.9373    20.805083 
 2090000    261.42331   -901.63616            0   -897.31083    4014.5205    13.257281    13.378329    13.045799    1.4595598    3763.8601     18.91387 
 2091000    292.34567    -902.6364            0   -897.79945     4904.349    13.257281    13.378329    13.045799    1.2594506    3765.7473    17.022464 
 2092000    274.68258   -902.92397            0   -898.37927    3933.2763    13.257281    13.378329    13.045799    1.5465907    3767.6293    15.131041 
 2093000    290.97207   -901.91629            0   -897.10207    6024.8538    13.257281    13.378329    13.045799    1.2816892    3769.5155    13.239643 
 2094000    285.46597   -902.35402            0    -897.6309    4283.3735    13.257281    13.378329    13.045799    1.4046429    3771.3939    11.348226 
 2095000    272.25519   -902.87031            0   -898.36576    4857.1513    13.257281    13.378329    13.045799    1.1151769    3773.2725    9.4568233 
 2096000     329.8491    -902.4909            0   -897.03345    4976.3354    13.257281    13.378329    13.045799    1.4101782    3775.1511     7.565433 
 2097000    288.29962   -902.70624            0   -897.93623    5161.7603    13.257281    13.378329    13.045799    1.1684751    3777.0582    5.6740984 
 2098000    312.77006   -902.58949            0   -897.41462    4827.1572    13.257281    13.378329    13.045799    1.1904219    3778.9442    3.7827269 
 2099000    285.70986   -901.75127            0   -897.02412    5431.5114    13.257281    13.378329    13.045799    1.4942418     3780.826    1.8913587 
 2100000    291.39239   -902.59612            0   -897.77495     5927.994    13.257281    13.378329    13.045799    1.2300131    3782.7272            0 
Loop time of 3782.73 on 1 procs for 2000000 steps with 129 atoms

Performance: 45.681 ns/day, 0.525 hours/ns, 528.719 timesteps/s
99.9% CPU use with 1 MPI tasks x no OpenMP threads

MPI task timing breakdown:
Section |  min time  |  avg time  |  max time  |%varavg| %total
---------------------------------------------------------------
Pair    | 2583.9     | 2583.9     | 2583.9     |   0.0 | 68.31
Kspace  | 1151.5     | 1151.5     | 1151.5     |   0.0 | 30.44
Neigh   | 2.798      | 2.798      | 2.798      |   0.0 |  0.07
Comm    | 31.375     | 31.375     | 31.375     |   0.0 |  0.83
Output  | 0.55414    | 0.55414    | 0.55414    |   0.0 |  0.01
Modify  | 5.9197     | 5.9197     | 5.9197     |   0.0 |  0.16
Other   |            | 6.675      |            |       |  0.18

Nlocal:        129.000 ave         129 max         129 min
Histogram: 1 0 0 0 0 0 0 0 0 0
Nghost:        3838.00 ave        3838 max        3838 min
Histogram: 1 0 0 0 0 0 0 0 0 0
Neighs:        41369.0 ave       41369 max       41369 min
Histogram: 1 0 0 0 0 0 0 0 0 0

Total # of neighbors = 41369
Ave neighs/atom = 320.68992
Neighbor list builds = 2738
Dangerous builds = 0
final_energy: -897.774948961352
END_OF_COMP
Total wall time: 1:06:43

