LAMMPS (10 Feb 2021)
# Input written to comply with LAMMPS 2017-08-11 00:00:00

# Atomic Configuration
units           metal
boundary        p p p
box tilt large
atom_style      charge
read_data       na3ocl.lmp
Reading data file ...
  orthogonal box = (0.0000000 0.0000000 0.0000000) to (13.503000 13.503000 13.503000)
  1 by 1 by 1 MPI processor grid
  reading atoms ...
  135 atoms
  read_data CPU = 0.001 seconds

# Potential Setup
pair_style  buck/coul/long 12.0
pair_coeff * * 0.0 1.0 0.0
pair_coeff 1 1    1788.190000  0.159000   0.000000 # Na Na
pair_coeff 1 3    1170.410000  0.315000   0.000000 # Na Cl
pair_coeff 1 2     588.380000  0.338000   0.000000 # Na O
pair_coeff 3 3    1227.200000  0.321000  14.530000 # Cl Cl
pair_coeff 2 3    8286.910000  0.259000  62.200000 # Cl O
pair_coeff 2 2   22764.300000  0.149000  13.190000 # O  O
kspace_style pppm 1e-05

# General Setup
timestep        0.001

# Thermodynamic Information Output
thermo_style custom step temp epair emol etotal press lx ly lz fmax cpu cpuremain
thermo          1000

# Intial Atom Velocity
velocity all create 300 80800 dist gaussian rot yes

# Stage 0: npt_equilibriation
restart         0
fix             int all npt aniso 1.0 1.0 0.1 temp 300 300 0.5
run             50000
PPPM initialization ...
  using 12-bit tables for long-range coulomb (../kspace.cpp:339)
  G vector (1/distance) = 0.27806613
  grid = 15 15 15
  stencil order = 5
  estimated absolute RMS force accuracy = 6.1564455e-05
  estimated relative force accuracy = 4.2754148e-06
  using double precision KISS FFT
  3d grid and FFT values/proc = 10648 3375
Neighbor list info ...
  update every 1 steps, delay 10 steps, check yes
  max neighbors/atom: 2000, page size: 100000
  master list distance cutoff = 14
  ghost atom cutoff = 14
  binsize = 7, bins = 2 2 2
  1 neighbor lists, perpetual/occasional/extra = 1 0 0
  (1) pair buck/coul/long, perpetual
      attributes: half, newton on
      pair build: half/bin/atomonly/newton
      stencil: half/bin/3d/newton
      bin: standard
Per MPI rank memory allocation (min/avg/max) = 4.411 | 4.411 | 4.411 Mbytes
Step Temp E_pair E_mol TotEng Press Lx Ly Lz Fmax CPU CPULeft 
       0          300    -935.0408            0   -929.84455   -22334.388       13.503       13.503       13.503 2.2762301e-07            0            0 
    1000    219.30426   -932.81223            0   -929.01369   -3483.9081    13.303023     13.35084    13.257205    1.2077127     2.672302     130.9428 
    2000    283.41904   -931.25802            0   -926.34896   -3459.3001    13.342155    13.339296     13.32607    1.4252257     5.289403    126.94567 
    3000    306.40247   -930.37666            0   -925.06951   -228.50319    13.378664     13.37949    13.211004    1.4599379    7.9044709    123.83673 
    4000    288.33195   -931.41494            0   -926.42078    690.55887    13.227556     13.36718    13.266065    1.3041917    10.519498    120.97424 
    5000    282.30384   -931.08772            0   -926.19798    1988.9423    13.215073    13.296383    13.329641    1.5463951    13.146672    118.32006 
    6000    314.71828   -930.93744            0   -925.48625    565.50492    13.327097    13.297871    13.270756    1.4311068    15.767962    115.63173 
    7000    290.73937   -931.36001            0   -926.32415    2840.2998    13.202469    13.339752    13.298425    1.5179735     18.39909    113.02299 
    8000    279.73823   -931.13002            0   -926.28471     1813.067     13.34563    13.233796    13.269585    1.7261054    21.014238    110.32476 
    9000    306.64978   -931.18843            0   -925.87699    996.28233    13.230344    13.357669    13.251215    1.5345315    23.658948    107.77966 
   10000    275.24738   -930.86333            0   -926.09581   -1701.6397    13.172128    13.417748    13.354673    1.4226897    26.311813    105.24726 
   11000    305.67743   -931.09149            0   -925.79689   -2635.9337    13.321108    13.285281    13.365436    1.3432519    28.977245    102.73751 
   12000    332.81725   -931.12366            0   -925.35898   -1611.9255    13.283081     13.29845    13.387345     1.566638    31.626305    100.14997 
   13000    283.00385   -931.40201            0   -926.50014   -637.93145     13.23246    13.262246    13.405623    1.4676392    34.293305    97.604024 
   14000    302.23383   -930.91005            0    -925.6751    1235.7587    13.264021    13.272964    13.310077     1.739867     36.94555    95.002843 
   15000    278.68453    -930.5995            0   -925.77245    3354.1963    13.344494    13.301708    13.163281    1.4495512    39.608974    92.420942 
   16000    280.77257   -931.21613            0    -926.3529    9898.2353    13.203664     13.03108    13.383376    1.1723411    42.266862    89.817084 
   17000    353.30787   -931.58364            0   -925.46404    5186.9253    13.212008    13.276526    13.235513     1.332814    44.910793    87.179777 
   18000    309.00576   -931.69163            0   -926.33939     4022.935    13.325219    13.154437     13.28545    1.2041041     47.57118    84.570986 
   19000    287.33101   -931.70593            0   -926.72911    2049.1066    13.293104    13.227056    13.274729    1.3148335    50.222149    81.941401 
   20000    286.84182    -930.6875            0   -925.71916    366.22197    13.318292     13.33658     13.24444    1.8122205    52.876302    79.314454 
   21000      291.421     -930.815            0   -925.76734   -2448.8119    13.258419    13.279376    13.428228    1.4002614    55.525708    76.678359 
   22000    266.12717   -931.21205            0    -926.6025   -3398.8055    13.391457    13.322057    13.275201    1.4938377    58.206473    74.080967 
   23000     309.6409   -931.36569            0   -926.00245   -955.06544    13.326138    13.385297    13.195406    1.3637596    60.870411     71.45657 
   24000     280.1909   -930.74358            0   -925.89043    504.25636    13.345691    13.258654     13.27475    1.3554963    63.516185    68.809201 
   25000    287.88673   -931.50539            0   -926.51895    1357.6119    13.286241    13.398251    13.147905    1.2995434    66.166042    66.166042 
   26000    300.39116   -931.47781            0   -926.27478    4037.4726    13.116583    13.297973    13.330462    1.3624943    68.824245    63.530072 
   27000    300.77629   -930.78697            0   -925.57726    527.85833    13.287653    13.217212    13.409412    1.4760433    71.469949    60.881809 
   28000    303.36251   -931.59408            0   -926.33958    568.18956    13.391006    13.289683    13.164178    1.1264383    74.116986    58.234775 
   29000    274.18032    -931.5024            0   -926.75336     1841.756    13.194081    13.505045    13.142872    1.1473322    76.773167    55.594362 
   30000    291.28579   -930.98475            0   -925.93943   -270.40101    13.325143    13.217502    13.356053    1.7586275    79.437279    52.958187 
   31000    305.83562   -930.98778            0   -925.69045    -2612.411    13.372186    13.238224    13.406109    1.7557093    82.120238    50.331759 
   32000    286.69087   -931.56888            0   -926.60315   -4049.7535    13.414093    13.284408    13.309088    1.3494454    84.762585    47.678955 
   33000    275.68805   -930.45504            0   -925.67989   -2947.1927    13.392244    13.316737    13.325784    1.2588619    87.422203     45.03568 
   34000    322.82963   -931.58805            0   -925.99636   -180.04549    13.307788    13.236704    13.386429   0.96028462    90.076832    42.389097 
   35000    267.31567   -931.52796            0   -926.89783     2670.979    13.348292    13.310588     13.15384    1.2844121    92.740136    39.745773 
   36000     324.5339   -931.18946            0   -925.56825    4045.7999    13.299982    13.204366     13.28707    1.6085353    95.384963    37.094153 
   37000    294.06512   -931.09206            0    -925.9986    3404.4547     13.18645    13.327384    13.272189    1.7629599    98.047474    34.449112 
   38000    290.37189    -931.8407            0   -926.81121    1533.2007    13.326193    13.247484    13.235956    1.2038352    100.71821     31.80575 
   39000    318.33101   -931.52121            0   -926.00745    3960.4733    13.232099    13.277116     13.28902    1.6562323    103.38123    29.158808 
   40000    310.01121   -931.13188            0   -925.76222    720.04906    13.316018    13.301552    13.229373     1.496979    106.03453    26.508634 
   41000     295.3802   -930.96095            0   -925.84471   -1069.1746    13.292084    13.332968    13.276545    1.3546031    108.70082    23.861155 
   42000    275.20497   -931.52045            0   -926.75366   -755.73451    13.257024    13.319317    13.339597    1.4093727    111.37501    21.214288 
   43000    320.35965   -930.92395            0   -925.37504     -2909.76    13.270251    13.322848    13.407278      1.55863    114.03085    18.563162 
   44000    278.13118   -930.81197            0    -925.9945    489.58806    13.292911    13.275721    13.309349    1.2260617    116.68296    15.911312 
   45000    303.93862   -931.77732            0   -926.51285    2514.3833    13.248811    13.268183    13.287052     1.431276    119.33219    13.259132 
   46000    289.84926   -931.49372            0   -926.47328    1212.4559    13.198517    13.336841    13.294994    1.1346176    121.98765    10.607622 
   47000    305.95671   -930.70301            0   -925.40358   -2284.0336    13.334301    13.344923    13.319668    1.4172972    124.63413    7.9553703 
   48000    267.31273   -931.06644            0   -926.43636   -5611.9035    13.458836    13.354627    13.269061    1.2768442    127.31533    5.3048055 
   49000    280.38963     -931.229            0   -926.37241    -2156.706    13.324029    13.312714    13.303495    1.2956395    129.96578    2.6523629 
   50000    300.60101   -931.08819            0   -925.88152   -1178.4874    13.273352    13.323447    13.348865    1.3607604    132.62327            0 
Loop time of 132.623 on 1 procs for 50000 steps with 135 atoms

Performance: 32.573 ns/day, 0.737 hours/ns, 377.008 timesteps/s
99.9% CPU use with 1 MPI tasks x no OpenMP threads

MPI task timing breakdown:
Section |  min time  |  avg time  |  max time  |%varavg| %total
---------------------------------------------------------------
Pair    | 69.944     | 69.944     | 69.944     |   0.0 | 52.74
Kspace  | 29.35      | 29.35      | 29.35      |   0.0 | 22.13
Neigh   | 0.27105    | 0.27105    | 0.27105    |   0.0 |  0.20
Comm    | 0.85207    | 0.85207    | 0.85207    |   0.0 |  0.64
Output  | 0.0011744  | 0.0011744  | 0.0011744  |   0.0 |  0.00
Modify  | 32.004     | 32.004     | 32.004     |   0.0 | 24.13
Other   |            | 0.2006     |            |       |  0.15

Nlocal:        135.000 ave         135 max         135 min
Histogram: 1 0 0 0 0 0 0 0 0 0
Nghost:        4024.00 ave        4024 max        4024 min
Histogram: 1 0 0 0 0 0 0 0 0 0
Neighs:        44322.0 ave       44322 max       44322 min
Histogram: 1 0 0 0 0 0 0 0 0 0

Total # of neighbors = 44322
Ave neighs/atom = 328.31111
Neighbor list builds = 238
Dangerous builds = 0

# Stage 1: nvt_equilibriation
unfix int
restart         0
fix             int all nvt temp 300 300 0.5
run             50000
PPPM initialization ...
  using 12-bit tables for long-range coulomb (../kspace.cpp:339)
  G vector (1/distance) = 0.27872205
  grid = 15 15 15
  stencil order = 5
  estimated absolute RMS force accuracy = 5.9344823e-05
  estimated relative force accuracy = 4.1212699e-06
  using double precision KISS FFT
  3d grid and FFT values/proc = 10648 3375
Per MPI rank memory allocation (min/avg/max) = 4.411 | 4.411 | 4.411 Mbytes
Step Temp E_pair E_mol TotEng Press Lx Ly Lz Fmax CPU CPULeft 
   50000    300.60101   -931.08832            0   -925.88165   -1179.1333    13.273352    13.323447    13.348865    1.3607636            0            0 
   51000    318.76624   -931.46477            0   -925.94346   -1154.8297    13.273352    13.323447    13.348865    1.5130155      1.96875     96.46875 
   52000    313.81494   -931.53887            0   -926.10332   -2206.4186    13.273352    13.323447    13.348865    1.6411728     3.940228    94.565472 
   53000       305.01   -930.75439            0   -925.47136   -341.04919    13.273352    13.323447    13.348865    1.3083947     5.918978     92.73067 
   54000    295.65052    -930.9706            0   -925.84968   -737.01353    13.273352    13.323447    13.348865    1.6008661    7.9078159    90.939894 
   55000    301.85823   -931.61705            0   -926.38861    -1928.879    13.273352    13.323447    13.348865    1.2843762    9.8929291     89.03637 
   56000    311.83094   -930.82901            0   -925.42783   -794.85571    13.273352    13.323447    13.348865    1.6134594    11.874781    87.081735 
   57000    302.72333   -930.99294            0   -925.74951   -1227.0387    13.273352    13.323447    13.348865    1.7154285    13.857766    85.126276 
   58000     304.5897   -931.59294            0   -926.31719   -1866.3665    13.273352    13.323447    13.348865    1.3659364      15.8417     83.16893 
   59000    268.66811   -931.24561            0   -926.59205   -1909.5811    13.273352    13.323447    13.348865    1.4244512    17.827582    81.214545 
   60000    306.46457   -930.71538            0   -925.40715   -1391.8407    13.273352    13.323447    13.348865    1.2538279    19.819004    79.276016 
   61000    290.83216   -931.43007            0   -926.39261   -1938.0787    13.273352    13.323447    13.348865    1.1288731    21.810406    77.327803 
   62000    284.70901   -931.44013            0   -926.50873   -1568.1328    13.273352    13.323447    13.348865    1.2287401      23.7976    75.359067 
   63000    318.27854   -931.19029            0   -925.67743   -1330.5647    13.273352    13.323447    13.348865     1.297438    25.787596    73.395468 
   64000     272.0708   -930.64489            0   -925.93239   -413.46107    13.273352    13.323447    13.348865    1.2836131    27.782142    71.439797 
   65000    291.52745   -931.66911            0    -926.6196   -1597.7448    13.273352    13.323447    13.348865    1.3089623     29.76199    69.444643 
   66000     321.2467   -931.17988            0   -925.61561   -341.63483    13.273352    13.323447    13.348865    1.5145946    31.742986    67.453847 
   67000    289.33336   -931.08505            0   -926.07354   -1051.7354    13.273352    13.323447    13.348865    1.4626161    33.718409    65.453382 
   68000    222.17921   -931.19657            0   -927.34823   -1564.3579    13.273352    13.323447    13.348865    1.6331677    35.702729     63.47152 
   69000    288.10251   -931.31723            0   -926.32705   -1183.0452    13.273352    13.323447    13.348865    1.5049562    37.677526    61.473858 
   70000    303.73597   -930.87475            0   -925.61379   -900.93807    13.273352    13.323447    13.348865    1.8059553    39.666403    59.499606 
   71000    289.26003   -930.94905            0   -925.93882   -700.05241    13.273352    13.323447    13.348865    1.4035729    41.643011    57.507017 
   72000    275.33287   -931.34325            0   -926.57424   -1946.1973    13.273352    13.323447    13.348865    1.5083925    43.619569    55.515816 
   73000    307.69465   -930.82366            0   -925.49413   -484.61116    13.273352    13.323447    13.348865    1.6229922    45.599357    53.529681 
   74000    310.45397    -931.4425            0   -926.06517    -1301.094    13.273352    13.323447    13.348865     1.250541     47.57824    51.543095 
   75000     269.5938   -931.21461            0   -926.54501   -800.24297    13.273352    13.323447    13.348865     1.301915    49.569668    49.569668 
   76000     300.7009   -930.50645            0   -925.29806   -157.30204    13.273352    13.323447    13.348865    1.3452948    51.545011     47.58001 
   77000    308.45097   -931.61666            0   -926.27402   -2221.8948    13.273352    13.323447    13.348865    1.5075646    53.534556    45.603512 
   78000    314.62312   -931.72696            0   -926.27741   -1158.3993    13.273352    13.323447    13.348865    1.4093585    55.512002    43.616574 
   79000     281.5868   -930.56905            0   -925.69172   -1175.9209    13.273352    13.323447    13.348865    2.5434059    57.493534     41.63325 
   80000    326.61704   -931.63219            0    -925.9749   -1837.8672    13.273352    13.323447    13.348865    1.7000409    59.478106    39.652071 
   81000    292.08608   -931.59374            0   -926.53456   -1483.7172    13.273352    13.323447    13.348865    1.2572889    61.458217     37.66794 
   82000    323.31888   -930.97246            0    -925.3723    648.87345    13.273352    13.323447    13.348865    2.0583439    63.436422    35.682988 
   83000    299.35689   -931.11984            0   -925.93473   -894.41887    13.273352    13.323447    13.348865    1.0795893     65.41316    33.697689 
   84000    292.33144    -931.0948            0   -926.03137   -660.74896    13.273352    13.323447    13.348865    1.2435693    67.392661    31.714194 
   85000    290.34787    -930.7414            0   -925.71233    370.78169    13.273352    13.323447    13.348865    1.4736542    69.407025    29.745868 
   86000    323.29363   -930.76852            0   -925.16879    52.714857    13.273352    13.323447    13.348865    1.3019145    71.386801    27.761534 
   87000    278.83323   -931.23462            0   -926.40499   -888.03913    13.273352    13.323447    13.348865    1.2654321      73.3579    25.774398 
   88000    339.38943   -931.57161            0    -925.6931   -751.00096    13.273352    13.323447    13.348865    1.3306513    75.332805    23.789307 
   89000    356.86398   -930.73922            0   -924.55803   -1220.9706    13.273352    13.323447    13.348865    2.4465223    77.316543     21.80723 
   90000     276.9347   -931.06822            0   -926.27148   -1057.4009    13.273352    13.323447    13.348865    1.1792643    79.302622    19.825656 
   91000    306.30744   -931.50604            0   -926.20053   -901.07106    13.273352    13.323447    13.348865    1.4165799    81.297535    17.845801 
   92000    341.60726   -931.25366            0   -925.33672    -2075.957    13.273352    13.323447    13.348865     1.386996    83.277205    15.862325 
   93000    287.51599   -931.67297            0   -926.69295   -2131.5832    13.273352    13.323447    13.348865    1.2600253     85.25305    13.878404 
   94000    312.02748   -931.48887            0   -926.08429   -1548.8271    13.273352    13.323447    13.348865    1.3798133    87.228117    11.894743 
   95000    330.72639   -931.22344            0   -925.49497   -1541.9716    13.273352    13.323447    13.348865     1.328649    89.213029    9.9125589 
   96000     258.0417   -931.28704            0   -926.81754   -1880.4078    13.273352    13.323447    13.348865    1.5146664    91.186409     7.929253 
   97000    286.70251   -930.96847            0   -926.00253   -1965.6727    13.273352    13.323447    13.348865    1.3112275    93.170632    5.9470616 
   98000    301.73516   -931.02971            0    -925.8034   -1646.7265    13.273352    13.323447    13.348865    1.8434721    95.151173    3.9646323 
   99000    268.79237   -931.56035            0   -926.90464   -2685.5997    13.273352    13.323447    13.348865    1.2530118    97.135476    1.9823567 
  100000    278.19509   -931.12323            0   -926.30465   -2285.3982    13.273352    13.323447    13.348865    1.4003072    99.122077            0 
Loop time of 99.1221 on 1 procs for 50000 steps with 135 atoms

Performance: 43.583 ns/day, 0.551 hours/ns, 504.428 timesteps/s
99.9% CPU use with 1 MPI tasks x no OpenMP threads

MPI task timing breakdown:
Section |  min time  |  avg time  |  max time  |%varavg| %total
---------------------------------------------------------------
Pair    | 68.995     | 68.995     | 68.995     |   0.0 | 69.61
Kspace  | 28.954     | 28.954     | 28.954     |   0.0 | 29.21
Neigh   | 0.023648   | 0.023648   | 0.023648   |   0.0 |  0.02
Comm    | 0.82596    | 0.82596    | 0.82596    |   0.0 |  0.83
Output  | 0.0010302  | 0.0010302  | 0.0010302  |   0.0 |  0.00
Modify  | 0.15103    | 0.15103    | 0.15103    |   0.0 |  0.15
Other   |            | 0.1716     |            |       |  0.17

Nlocal:        135.000 ave         135 max         135 min
Histogram: 1 0 0 0 0 0 0 0 0 0
Nghost:        4024.00 ave        4024 max        4024 min
Histogram: 1 0 0 0 0 0 0 0 0 0
Neighs:        44269.0 ave       44269 max       44269 min
Histogram: 1 0 0 0 0 0 0 0 0 0

Total # of neighbors = 44269
Ave neighs/atom = 327.91852
Neighbor list builds = 21
Dangerous builds = 0

# Stage 2: main_nvt_simulation
unfix int
dump     atom_info all custom 1000 main_nvt_simulation-trajectory.lammpstrj element x y z q id type vx vy vz
dump_modify     atom_info append yes
dump_modify     atom_info sort id
dump_modify     atom_info element Na O Cl
restart         0
fix             int all nvt temp 300 300 0.5
run             2000000
PPPM initialization ...
  using 12-bit tables for long-range coulomb (../kspace.cpp:339)
  G vector (1/distance) = 0.27872205
  grid = 15 15 15
  stencil order = 5
  estimated absolute RMS force accuracy = 5.9344823e-05
  estimated relative force accuracy = 4.1212699e-06
  using double precision KISS FFT
  3d grid and FFT values/proc = 10648 3375
Per MPI rank memory allocation (min/avg/max) = 5.683 | 5.683 | 5.683 Mbytes
Step Temp E_pair E_mol TotEng Press Lx Ly Lz Fmax CPU CPULeft 
  100000    278.19509   -931.12323            0   -926.30465   -2285.3982    13.273352    13.323447    13.348865    1.4003072            0            0 
  101000    297.47118   -930.45321            0   -925.30075   -1132.3763    13.273352    13.323447    13.348865    1.5508304    1.9788461    3955.7152 
  102000    307.56638   -930.77942            0    -925.4521   -1392.5479    13.273352    13.323447    13.348865    1.5296624    3.9635479    3959.5844 
  103000    325.52176    -931.6089            0   -925.97058   -1774.1943    13.273352    13.323447    13.348865    1.0512596    5.9372082    3952.2016 
  104000    267.34235   -930.86111            0   -926.23051   -1130.6482    13.273352    13.323447    13.348865    2.1204203    7.9309711    3957.5546 
  105000    295.92326   -930.55681            0   -925.43117   -229.16177    13.273352    13.323447    13.348865    1.6288237    9.9115391    3954.7041 
  106000    297.63411   -931.07233            0   -925.91706   -1759.4246    13.273352    13.323447    13.348865    1.8196329    11.900845    3955.0478 
  107000    270.57733   -931.02213            0    -926.3355   -1252.3459    13.273352    13.323447    13.348865    1.5705525     13.87136    3949.3746 
  108000    320.50409   -931.03226            0   -925.48086   -1370.9684    13.273352    13.323447    13.348865    1.5577351     15.85684    3948.3534 
  109000    264.99008   -931.41829            0   -926.82843   -2876.8962    13.273352    13.323447    13.348865     1.059989    17.852218    3949.3076 
  110000    306.30052    -931.3622            0   -926.05681   -1519.3214    13.273352    13.323447    13.348865    1.5222856    19.834885    3947.1423 
  111000     309.2312   -930.94337            0   -925.58722   -1925.1399    13.273352    13.323447    13.348865    1.4221031    21.827459    3946.8015 
  112000    266.36319   -931.50673            0   -926.89309   -2338.1951    13.273352    13.323447    13.348865    1.6236861    23.806949    3944.0179 
  113000    265.39809   -930.88759            0   -926.29067   -1525.2787    13.273352    13.323447    13.348865   0.93948368    25.797831    3943.0994 
  114000    313.78186   -931.21358            0   -925.77861   -2006.3206    13.273352    13.323447    13.348865    1.4184455    27.770719     3939.475 
  115000    292.99587   -930.97502            0   -925.90008   -1538.5968    13.273352    13.323447    13.348865    1.9304568    29.767805     3939.273 
  116000    305.13481   -931.82388            0   -926.53868   -2474.5654    13.273352    13.323447    13.348865    1.3869458    31.739717     3935.725 
  117000     324.1479   -930.91933            0   -925.30481   -1507.4272    13.273352    13.323447    13.348865    1.3968271    33.713763    3932.6114 
  118000    304.92186   -931.14112            0   -925.85961   -1622.5039    13.273352    13.323447    13.348865    1.2681588    35.687899    3929.6343 
  119000    311.49275   -931.43851            0   -926.04319   -1723.0147    13.273352    13.323447    13.348865    1.0171416    37.666003    3927.1765 
  120000    295.31814   -930.90448            0   -925.78931   -1764.3843    13.273352    13.323447    13.348865    1.5474608    39.659646     3926.305 
  121000    328.70938   -930.61962            0   -924.92609   -1662.4409    13.273352    13.323447    13.348865    1.8177524    41.631963     3923.317 
  122000    291.51481   -931.26445            0   -926.21516   -2086.8154    13.273352    13.323447    13.348865    1.3184017    43.613473    3921.2478 
  123000    314.23957    -931.1674            0    -925.7245   -1948.3347    13.273352    13.323447    13.348865    1.2147145     45.57954    3917.8587 
  124000    326.69305   -930.61835            0   -924.95975   -1520.5138    13.273352    13.323447    13.348865    1.3062542    47.550574    3914.9973 
  125000    279.59836   -931.00295            0   -926.16007   -1544.9693    13.273352    13.323447    13.348865    1.5817601    49.530439    3912.9048 
  126000    300.79846   -930.89649            0   -925.68641    -1678.785    13.273352    13.323447    13.348865    1.5998077    51.502262    3910.2103 
  127000    322.49253   -931.00351            0   -925.41766   -1482.3617    13.273352    13.323447    13.348865    1.6858776    53.474388    3907.5915 
  128000    285.16482   -931.51571            0   -926.57641   -2673.4295    13.273352    13.323447    13.348865    1.4537392    55.443297    3904.7922 
  129000    317.70197   -930.99996            0   -925.49709   -978.83712    13.273352    13.323447    13.348865    1.3967309     57.42895    3903.1883 
  130000    311.44021   -931.01899            0   -925.62457   -1261.2583    13.273352    13.323447    13.348865    1.7532768    59.404987    3900.9275 
  131000    299.83389   -931.52113            0   -926.32775   -1311.8505    13.273352    13.323447    13.348865    1.7141205    61.391493      3899.35 
  132000    322.06002   -931.74838            0   -926.17002   -1830.5128    13.273352    13.323447    13.348865    1.4912324    63.361487    3896.7315 
  133000    316.18836   -930.78482            0   -925.30817   -1338.1217    13.273352    13.323447    13.348865    1.4546979    65.338089    3894.5461 
  134000    254.11793   -930.95439            0   -926.55284   -1747.0549    13.273352    13.323447    13.348865    1.6933098    67.313276    3892.2912 
  135000    273.06339   -930.78827            0   -926.05858   -695.40107    13.273352    13.323447    13.348865    1.2884848    69.288049    3890.0291 
  136000     321.3174   -931.27056            0   -925.70506   -1693.0812    13.273352    13.323447    13.348865    1.1233199    71.265418    3887.9245 
  137000    253.81971   -931.39244            0   -926.99606   -837.19737    13.273352    13.323447    13.348865    1.4359935    73.238281    3885.5878 
  138000    281.76878   -930.71966            0   -925.83918   -112.41525    13.273352    13.323447    13.348865    1.5096428    75.213212    3883.3769 
  139000    320.82689   -931.38462            0   -925.82762   -1154.0451    13.273352    13.323447    13.348865    1.3229958    77.192052    3881.3748 
  140000    267.40481    -931.6939            0   -927.06222   -1691.7132    13.273352    13.323447    13.348865    1.3073869    79.171839    3879.4202 
  141000    288.54924   -931.22205            0   -926.22413   -501.56664    13.273352    13.323447    13.348865     1.700115    81.150589    3877.4148 
  142000    290.96927   -930.79884            0   -925.75901   -734.65407    13.273352    13.323447    13.348865    1.5362804    83.126598    3875.2829 
  143000    347.30853   -931.70437            0   -925.68869   -1795.9174    13.273352    13.323447    13.348865    1.3747447    85.100161    3873.0469 
  144000    287.84952   -931.63144            0   -926.64564   -2078.3193    13.273352    13.323447    13.348865    1.2796265    87.074653    3870.8642 
  145000    317.97859   -930.84884            0   -925.34118   -519.83406    13.273352    13.323447    13.348865    2.1805326    89.048806     3868.676 
  146000    277.24341   -930.72075            0   -925.91866   -670.75283    13.273352    13.323447    13.348865    1.6788495    91.028742    3866.7427 
  147000    302.98571   -931.57775            0   -926.32978   -2432.0229    13.273352    13.323447    13.348865    1.5899182    93.017064    3865.1559 
  148000    345.52563   -930.91162            0   -924.92681   -1194.6583    13.273352    13.323447    13.348865    1.4970264    94.992025    3863.0091 
  149000    263.03495   -930.71306            0   -926.15707   -2033.9578    13.273352    13.323447    13.348865     1.478429    96.979525    3861.3685 
  150000    328.69102    -931.5988            0   -925.90558   -1726.7871    13.273352    13.323447    13.348865    1.0462744    98.947894    3858.9679 
  151000    335.92008   -930.63556            0   -924.81713   -1183.0235    13.273352    13.323447    13.348865    1.5883265    100.93393    3857.2596 
  152000    298.70737   -930.97112            0   -925.79726   -1085.6985    13.273352    13.323447    13.348865    1.1280134    102.90594    3855.0149 
  153000    284.89453   -931.33054            0   -926.39592   -1652.6739    13.273352    13.323447    13.348865    1.5325099    104.87584     3852.703 
  154000    313.61559   -931.03818            0   -925.60609   -1027.0953    13.273352    13.323447    13.348865    1.2678873    106.84852    3850.5041 
  155000    315.30037   -931.10532            0   -925.64405   -971.46512    13.273352    13.323447    13.348865    1.2318468    108.81793    3848.1979 
  156000    291.68045   -931.44828            0   -926.39613   -1993.6944    13.273352    13.323447    13.348865    1.3445781    110.79273    3846.0903 
  157000    302.58819   -930.97686            0   -925.73577   -1485.4147    13.273352    13.323447    13.348865     1.362441    112.76962     3844.059 
  158000    304.52961   -930.62687            0   -925.35215   -1737.6024    13.273352    13.323447    13.348865     1.559045    114.75406    3842.2826 
  159000    315.62071   -931.84058            0   -926.37376   -1992.6004    13.273352    13.323447    13.348865    1.2674155    116.73034    3840.2305 
  160000    276.93292   -930.73262            0   -925.93591   -70.217499    13.273352    13.323447    13.348865    1.6616575    118.70493     3838.126 
  161000    315.32542   -930.84256            0   -925.38085   -168.10914    13.273352    13.323447    13.348865    1.1450841    120.67924    3836.0172 
  162000    280.99388   -930.87212            0   -926.00507   -1090.4109    13.273352    13.323447    13.348865     1.205654    122.65495    3833.9563 
  163000    278.76388   -930.80048            0   -925.97205   -505.81665    13.273352    13.323447    13.348865    1.3357096    124.64183    3832.2416 
  164000    364.77446   -931.06931            0    -924.7511   -784.43194    13.273352    13.323447    13.348865    1.4345436    126.61838     3830.206 
  165000    304.19201    -931.2999            0   -926.03103   -1603.7021    13.273352    13.323447    13.348865    1.5706143    128.59108    3828.0575 
  166000    308.05712   -931.44769            0   -926.11187   -1697.0274    13.273352    13.323447    13.348865    1.2749459     130.5673    3826.0175 
  167000    376.43205   -931.34107            0   -924.82095   -1291.6893    13.273352    13.323447    13.348865    1.5094621     132.5389    3823.8461 
  168000    299.77871   -931.26339            0   -926.07096   -2319.2136    13.273352    13.323447    13.348865    1.4396448    134.50973    3821.6587 
  169000    278.27356   -930.75228            0   -925.93235   -1261.2107    13.273352    13.323447    13.348865    1.7375373    136.48413    3819.5777 
  170000    319.65807   -930.95176            0     -925.415   -684.39714    13.273352    13.323447    13.348865    1.4345869    138.45854    3817.4998 
  171000    256.52188    -930.8966            0   -926.45342   -1235.4435    13.273352    13.323447    13.348865    1.7448017    140.43173    3815.3916 
  172000    271.10556   -930.73804            0   -926.04226   -820.09259    13.273352    13.323447    13.348865    1.4281325    142.40185    3813.2052 
  173000    289.59471   -930.49272            0   -925.47669   -441.15673    13.273352    13.323447    13.348865    1.4943157    144.37025    3810.9791 
  174000    296.98833   -931.40714            0   -926.26304   -1402.8764    13.273352    13.323447    13.348865    1.9173429    146.35281    3809.1286 
  175000    294.05145   -931.34122            0   -926.24799   -1317.6341    13.273352    13.323447    13.348865    1.3939501    148.32785    3807.0816 
  176000    290.40312   -930.28264            0   -925.25261   -218.31962    13.273352    13.323447    13.348865    1.3923131    150.31995    3805.4682 
  177000    289.79438   -931.48182            0   -926.46233   -1091.9722    13.273352    13.323447    13.348865    1.5199328    152.29168    3803.3364 
  178000    292.28723    -931.1749            0   -926.11224    -1457.641    13.273352    13.323447    13.348865    1.2959672    154.28659    3801.7799 
  179000    310.03745   -931.20008            0   -925.82996     46.20966    13.273352    13.323447    13.348865    1.4292262    156.25956    3799.6786 
  180000    272.24121   -931.62136            0   -926.90591   -2409.3285    13.273352    13.323447    13.348865    1.5097473    158.25413    3798.0992 
  181000     287.7881   -930.93651            0   -925.95177   -1626.9504    13.273352    13.323447    13.348865    1.2878732    160.24306    3796.3757 
  182000    332.23012   -931.43247            0   -925.67796   -1482.2137    13.273352    13.323447    13.348865    1.0786534    162.22035    3794.3736 
  183000    277.31462   -931.75148            0   -926.94815   -2185.4176    13.273352    13.323447    13.348865    1.4305247    164.20655    3792.5777 
  184000    292.51674   -931.33487            0   -926.26823   -1275.7692    13.273352    13.323447    13.348865    1.7022053    166.17584    3790.3918 
  185000    296.81773   -930.87343            0   -925.73229   -1370.1325    13.273352    13.323447    13.348865    1.7383896    168.15732    3788.4854 
  186000    304.67828   -930.87419            0    -925.5969   -848.63561    13.273352    13.323447    13.348865    1.6723972    170.13163    3786.4179 
  187000     278.1406   -931.44629            0   -926.62865   -1097.0469    13.273352    13.323447    13.348865    1.3991334    172.12588    3784.7909 
  188000    297.38244   -930.54746            0   -925.39655   -2098.4217    13.273352    13.323447    13.348865    1.3186923    174.10034    3782.7257 
  189000    305.97023   -931.12019            0   -925.82052    -810.6931    13.273352    13.323447    13.348865    1.3743508     176.0805    3780.7847 
  190000    289.24857    -931.3242            0   -926.31416   -1382.7711    13.273352    13.323447    13.348865    1.5359328    178.07715    3779.1929 
  191000    358.64079   -931.08155            0   -924.86958   -1867.2326    13.273352    13.323447    13.348865    1.2324998    180.04477    3776.9831 
  192000     309.5497   -931.45565            0   -926.09398   -1100.6011    13.273352    13.323447    13.348865    1.1322971    182.02561    3775.0528 
  193000    296.33621   -931.18976            0   -926.05696   -1670.2588    13.273352    13.323447    13.348865    1.1462762     183.9881    3772.7453 
  194000     324.3625   -930.35959            0   -924.74135   -1066.2858    13.273352    13.323447    13.348865    1.4503027    185.96738    3770.7853 
  195000     286.6952   -930.74683            0   -925.78103   -1855.3105    13.273352    13.323447    13.348865     2.000276    187.93948    3768.6811 
  196000    302.02003   -931.47814            0    -926.2469   -2271.7005    13.273352    13.323447    13.348865    1.6721835    189.93179    3766.9806 
  197000    310.58195   -930.79346            0   -925.41391   -1710.0865    13.273352    13.323447    13.348865    1.3561265    191.90002    3764.8013 
  198000    315.96002   -931.25315            0   -925.78045   -628.43388    13.273352    13.323447    13.348865    1.3630877     193.8661     3762.585 
  199000    277.77883   -931.13337            0     -926.322   -1542.6425    13.273352    13.323447    13.348865    1.2282148    195.84691    3760.6564 
  200000    322.81021   -931.15558            0   -925.56423    -1434.689    13.273352    13.323447    13.348865    1.4583115    197.81486    3758.4823 
  201000    335.11533   -930.12219            0    -924.3177    667.03367    13.273352    13.323447    13.348865     1.622025    199.78913    3756.4314 
  202000    303.37951   -931.15262            0   -925.89783   -1185.1605    13.273352    13.323447    13.348865    1.5873491    201.75547    3754.2342 
  203000    291.11169   -931.29137            0   -926.24906   -486.16674    13.273352    13.323447    13.348865    1.5571011     203.7179    3751.9695 
  204000     313.3703   -930.57724            0    -925.1494   -433.02869    13.273352    13.323447    13.348865    1.6192454    205.68837    3749.8572 
  205000    318.24189   -931.71475            0   -926.20252   -2324.7479    13.273352    13.323447    13.348865    1.3159867    207.67559      3748.05 
  206000    298.10024   -931.27724            0   -926.11388   -1885.7344    13.273352    13.323447    13.348865    1.8737043    209.64491    3745.9195 
  207000    311.58367   -930.73066            0   -925.33377   -377.89623    13.273352    13.323447    13.348865    1.2642738    211.61009    3743.7186 
  208000    268.52658     -931.229            0   -926.57789   -1833.8772    13.273352    13.323447    13.348865     1.589869    213.57374    3741.4955 
  209000    273.26719   -930.64103            0   -925.90781    -1316.367    13.273352    13.323447    13.348865    1.6950577    215.54123    3739.3437 
  210000    311.53297   -931.00903            0   -925.61301   -511.60239    13.273352    13.323447    13.348865    1.6515798     217.5081    3737.1846 
  211000    301.84269   -931.21598            0   -925.98781   -1579.8536    13.273352    13.323447    13.348865    1.2785609    219.48092    3735.1303 
  212000    259.75832   -930.42194            0    -925.9227    -411.1038    13.273352    13.323447    13.348865    1.6180941    221.45177    3733.0441 
  213000    305.49873   -930.44281            0   -925.15131   -333.62267    13.273352    13.323447    13.348865    1.1475435    223.42348    3730.9744 
  214000    289.14644   -930.90196            0    -925.8937   -649.76716    13.273352    13.323447    13.348865    1.4363133    225.39589     3728.918 
  215000     292.1623   -931.30002            0   -926.23952   -1363.1629    13.273352    13.323447    13.348865    1.5758366    227.37095    3726.9065 
  216000    336.90262   -930.61445            0   -924.77901    -61.05857    13.273352    13.323447    13.348865    1.3979555    229.34611    3724.8972 
  217000    291.44293    -930.5256            0   -925.47756   -1114.2758    13.273352    13.323447    13.348865    1.1377652    231.32152    3722.8925 
  218000    305.53157    -931.6021            0   -926.31004   -924.34758    13.273352    13.323447    13.348865    1.1718626    233.29268    3720.8206 
  219000    298.48029   -931.19978            0   -926.02984   -1534.2186    13.273352    13.323447    13.348865     1.090512    235.26356    3718.7458 
  220000    324.82748   -930.98649            0    -925.3602   -2064.5611    13.273352    13.323447    13.348865    1.4100686    237.23794    3716.7277 
  221000    292.83698   -931.18542            0   -926.11323   -467.76622    13.273352    13.323447    13.348865     1.228436      239.217     3714.783 
  222000    281.51977   -930.83346            0    -925.9573   -1418.7104    13.273352    13.323447    13.348865    1.4988863    241.19178    3712.7719 
  223000    356.23166   -930.94279            0   -924.77256   -1394.1229    13.273352    13.323447    13.348865    1.5432666    243.17428     3710.879 
  224000    309.40489   -931.08793            0   -925.72877    -756.4347    13.273352    13.323447    13.348865     1.670653    245.15542    3708.9642 
  225000     278.1557   -930.93973            0   -926.12183   -2298.8209    13.273352    13.323447    13.348865    1.4128195    247.13404    3707.0106 
  226000     312.9411   -930.66066            0   -925.24025   -173.94725    13.273352    13.323447    13.348865    1.4804175    249.12967    3705.3096 
  227000    310.12693   -931.25626            0   -925.88459   -1445.4955    13.273352    13.323447    13.348865    1.4553027    251.10943    3703.3697 
  228000    304.58549   -931.47803            0   -926.20235   -1309.3601    13.273352    13.323447    13.348865    1.4434581    253.25449    3703.8469 
  229000    334.58197   -930.98075            0    -925.1855   -516.52668    13.273352    13.323447    13.348865    1.2860181    255.29852    3702.8181 
  230000    320.81046   -931.45631            0   -925.89959   -1138.8926    13.273352    13.323447    13.348865     1.474285    257.30721    3701.2653 
  231000    290.90035   -931.41634            0    -926.3777   -1861.5352    13.273352    13.323447    13.348865    1.3184177    259.28113    3699.2094 
  232000    320.27052   -930.81193            0   -925.26457   -1000.0472    13.273352    13.323447    13.348865    1.9137669    261.29266    3697.6871 
  233000    275.16449   -931.46204            0   -926.69595   -1461.7183    13.273352    13.323447    13.348865    1.4031813     263.2761     3695.763 
  234000    289.90209   -931.08469            0   -926.06334   -1581.3953    13.273352    13.323447    13.348865    1.2825679    265.25228     3693.737 
  235000    293.63224   -930.64446            0    -925.5585   -1442.5869    13.273352    13.323447    13.348865    1.1162818    267.23835    3691.8484 
  236000    258.49345   -931.33327            0   -926.85594   -2641.5276    13.273352    13.323447    13.348865    1.3432283    269.21456    3689.8231 
  237000    270.53956    -930.8001            0   -926.11412   -1079.4218    13.273352    13.323447    13.348865     1.468408     271.1987    3687.9064 
  238000    276.23323   -930.51502            0   -925.73043   -896.89606    13.273352    13.323447    13.348865    1.4435112    273.17725    3685.9134 
  239000    255.63939   -931.24363            0   -926.81574   -1125.2775    13.273352    13.323447    13.348865    1.3059895    275.16593     3684.056 
  240000    281.64445   -931.01853            0   -926.14021   -1158.5234    13.273352    13.323447    13.348865     1.237641    277.17678    3682.4916 
  241000    308.44889   -931.14266            0   -925.80006   -273.50452    13.273352    13.323447    13.348865    1.2767699    279.16353    3680.6029 
  242000    279.31865   -931.64814            0    -926.8101   -1944.5255    13.273352    13.323447    13.348865    1.4255565    281.14574    3678.6534 
  243000    276.32323   -931.16008            0   -926.37393   -821.66806    13.273352    13.323447    13.348865    1.5377926    283.12838    3676.7091 
  244000     300.5132   -930.97195            0    -925.7668    -332.7039    13.273352    13.323447    13.348865    1.3654019    285.12275    3674.9155 
  245000    276.17332   -930.93617            0   -926.15261   -2073.4813    13.273352    13.323447    13.348865    1.7787539    287.12355    3673.2013 
  246000    252.73097   -931.09759            0   -926.72007   -1071.7288    13.273352    13.323447    13.348865    1.3635249    289.12558    3671.4988 
  247000    321.21077    -930.9846            0   -925.42095   -1188.2856    13.273352    13.323447    13.348865    1.5459833    291.12514    3669.7611 
  248000    300.23779   -931.49037            0      -926.29   -2091.5836    13.273352    13.323447    13.348865    1.5389938    293.13626    3668.1646 
  249000    278.63734   -931.17952            0   -926.35328   -853.40856    13.273352    13.323447    13.348865    1.3539393    295.14521    3666.5355 
  250000    316.63694   -930.80132            0   -925.31689    408.82364    13.273352    13.323447    13.348865    1.3122869    297.14601    3664.8008 
  251000    291.22068   -931.45569            0    -926.4115   -1342.9816    13.273352    13.323447    13.348865    1.7268484    299.15858    3663.2068 
  252000    347.27477   -931.52547            0   -925.51038   -1494.9332    13.273352    13.323447    13.348865    1.4228138    301.15261    3661.3817 
  253000    317.73781   -930.86631            0   -925.36282   -1541.3165    13.273352    13.323447    13.348865    1.3494348    303.15533    3659.6595 
  254000    265.53419   -930.87575            0   -926.27647   -1949.5418    13.273352    13.323447    13.348865    1.3638178    305.13391    3657.6442 
  255000    324.78205   -930.93721            0    -925.3117   -834.58881    13.273352    13.323447    13.348865    1.6417989    307.11696    3655.6825 
  256000    323.05428     -931.149            0   -925.55342   -1233.7425    13.273352    13.323447    13.348865    1.1320999    309.09898    3653.7085 
  257000    273.86699   -930.88514            0   -926.14153   -1038.0777    13.273352    13.323447    13.348865    1.8615208    311.07729    3651.6907 
  258000    316.32125   -931.10213            0   -925.62317   -592.57373    13.273352    13.323447    13.348865    1.7664131     313.0568    3649.6875 
  259000    305.65626   -930.57349            0   -925.27926   -994.27821    13.273352    13.323447    13.348865    1.2092955    315.08743    3648.2765 
  260000      304.594   -931.47124            0   -926.19541     -453.769    13.273352    13.323447    13.348865    1.2627139    317.06486    3646.2459 
  261000    311.60802   -931.00936            0   -925.61204   -698.24658    13.273352    13.323447    13.348865    1.0265792    319.04051    3644.1957 
  262000     315.4255   -930.44655            0   -924.98311   -1187.5105    13.273352    13.323447    13.348865    1.3744321    321.02524    3642.2494 
  263000    285.84997   -931.21668            0   -926.26551   -1324.0771    13.273352    13.323447    13.348865    1.5943897    323.00098    3640.2013 
  264000    300.22915   -930.71035            0   -925.51013   -614.96792    13.273352    13.323447    13.348865    1.4344073     324.9762    3638.1482 
  265000    305.05008   -930.78942            0   -925.50569   -1436.4631    13.273352    13.323447    13.348865    1.7001005     326.9697    3636.2994 
  266000    288.37257   -931.46247            0   -926.46761   -1756.0511    13.273352    13.323447    13.348865    1.4534882    328.97879     3634.621 
  267000     302.5959   -930.61103            0   -925.36981   -400.82852    13.273352    13.323447    13.348865    1.4617753    330.95238    3632.5492 
  268000    286.03993   -930.93119            0   -925.97673   -1450.0678    13.273352    13.323447    13.348865    1.3799715    332.92756    3630.4958 
  269000    304.30125   -931.35368            0   -926.08292   -2320.5978    13.273352    13.323447    13.348865    1.3861489    334.90342    3628.4507 
  270000    322.49622   -931.20773            0   -925.62181   -1334.7647    13.273352    13.323447    13.348865    1.4880903    336.87512    3626.3616 
  271000    300.78616   -931.32218            0    -926.1123   -1384.9211    13.273352    13.323447    13.348865    1.4632077    338.84761    3624.2823 
  272000     269.3423   -931.19362            0   -926.52838    -2058.238    13.273352    13.323447    13.348865    1.4791047    340.82168    3622.2212 
  273000    308.60577   -930.76279            0   -925.41747   -1736.4421    13.273352    13.323447    13.348865    1.1203719    342.79547    3620.1579 
  274000    295.15784   -931.39354            0   -926.28115   -1253.1636    13.273352    13.323447    13.348865    1.8752947    344.77058    3618.1096 
  275000    312.75039   -931.27918            0   -925.86208   -1702.7829    13.273352    13.323447    13.348865    1.2348962     346.7405    3616.0081 
  276000    315.34903   -930.84468            0   -925.38257   -940.11924    13.273352    13.323447    13.348865    1.8431543    348.72179    3614.0258 
  277000    284.19814   -931.23956            0   -926.31701   -1510.4628    13.273352    13.323447    13.348865     1.158276    350.69304    3611.9402 
  278000    302.74116   -931.00663            0   -925.76289   -883.47347    13.273352    13.323447    13.348865    1.3886654    352.66311    3609.8437 
  279000     321.1821   -929.92293            0   -924.35978   -26.720276    13.273352    13.323447    13.348865    1.7758554    354.64244     3607.843 
  280000    304.10886   -931.06587            0   -925.79845   -1619.3468    13.273352    13.323447    13.348865    1.2745893    356.62513    3605.8763 
  281000    305.67435   -931.69255            0   -926.39801   -2286.4126    13.273352    13.323447    13.348865    1.0844649    358.59827    3603.8135 
  282000    328.51138    -930.8486            0    -925.1585   -214.52002    13.273352    13.323447    13.348865    1.4094136    360.60332    3602.0705 
  283000    318.92865   -931.42871            0    -925.9046   -1270.1179    13.273352    13.323447    13.348865    1.6060794    362.59577    3600.1995 
  284000     286.1935   -931.03921            0   -926.08209   -2071.1097    13.273352    13.323447    13.348865     1.460813    364.57204    3598.1676 
  285000    308.20422   -930.67089            0   -925.33253   -1210.7114    13.273352    13.323447    13.348865    1.3675962    366.60997    3596.7411 
  286000    359.24036   -931.71841            0   -925.49606   -1912.7652    13.273352    13.323447    13.348865    1.2547528    368.58743    3594.7183 
  287000     283.2282   -931.16485            0   -926.25909   -2039.7635    13.273352    13.323447    13.348865    1.2149692    370.56369    3592.6843 
  288000    301.25384   -930.54946            0   -925.33148   -1047.6635    13.273352    13.323447    13.348865    2.1027148    372.53898    3590.6416 
  289000    293.18683   -930.98062            0   -925.90237   -1865.5302    13.273352    13.323447    13.348865    1.2688567    374.58569    3589.2841 
  290000    271.42696   -930.99732            0   -926.29597   -2030.2239    13.273352    13.323447    13.348865    1.4688146    376.55607    3587.1921 
  291000    323.04604   -930.90339            0   -925.30795   -156.44667    13.273352    13.323447    13.348865    1.4657284    378.52589     3585.096 
  292000    296.36069   -931.85765            0   -926.72442   -1720.0611    13.273352    13.323447    13.348865     1.052308    380.50382    3583.0777 
  293000    301.98001   -931.17003            0   -925.93947    -1585.755    13.273352    13.323447    13.348865    1.1813015    382.47939    3581.0377 
  294000    303.32517   -930.88454            0   -925.63069    -1103.094    13.273352    13.323447    13.348865    1.5299342    384.45597    3579.0076 
  295000    276.58537   -931.93991            0   -927.14921   -2163.4511    13.273352    13.323447    13.348865    1.2374433    386.43445    3576.9958 
  296000       295.12   -931.36848            0   -926.25675   -1468.8444    13.273352    13.323447    13.348865    1.5623658    388.40909    3574.9489 
  297000    342.19613   -931.51625            0   -925.58912   -602.51564    13.273352    13.323447    13.348865    1.4548288    390.38481    3572.9128 
  298000    277.39321   -931.52825            0   -926.72356   -1921.7645    13.273352    13.323447    13.348865    1.3934542    392.36144    3570.8854 
  299000    315.22596    -931.6582            0   -926.19822   -1618.5026    13.273352    13.323447    13.348865    1.3410955    394.33728    3568.8515 
  300000    308.10931   -931.17012            0   -925.83341   -1354.5541    13.273352    13.323447    13.348865    1.3174306    396.31286    3566.8157 
  301000    295.46701    -931.3201            0   -926.20236   -1307.6051    13.273352    13.323447    13.348865    1.3423704    398.29112    3564.8046 
  302000    275.75836   -931.46402            0   -926.68765   -901.09376    13.273352    13.323447    13.348865    1.4164896    400.26531    3562.7576 
  303000    330.29617   -931.22107            0   -925.50006   -2052.7507    13.273352    13.323447    13.348865    1.7100179    402.24292    3560.7415 
  304000    294.60026   -931.30012            0   -926.19739   -1732.2821    13.273352    13.323447    13.348865    1.4173154    404.21712    3558.6958 
  305000    248.94159   -931.81937            0   -927.50749   -2438.6447    13.273352    13.323447    13.348865    1.3265261    406.19267    3556.6626 
  306000    310.15221   -931.43358            0   -926.06148   -1286.5929    13.273352    13.323447    13.348865    1.9717264    408.16768    3554.6254 
  307000    350.40223   -931.66382            0   -925.59455   -1744.3649    13.273352    13.323447    13.348865    1.2963677    410.14565    3552.6143 
  308000    262.73608   -931.17178            0   -926.62097   -2065.7309    13.273352    13.323447    13.348865    1.9067485    412.12231    3550.5922 
  309000    339.18069   -931.32971            0   -925.45481   -1096.6453    13.273352    13.323447    13.348865    1.2938447    414.09882    3548.5693 
  310000     334.4488   -931.60096            0   -925.80802   -1686.4488    13.273352    13.323447    13.348865     1.180256    416.07628    3546.5549 
  311000    276.38608   -931.19375            0    -926.4065   -2792.7212    13.273352    13.323447    13.348865    1.2504065    418.05272    3544.5323 
  312000    342.24982   -930.75849            0   -924.83043   -1099.8272    13.273352    13.323447    13.348865    1.3654473    420.03003    3542.5175 
  313000    299.52048    -931.1581            0   -925.97014   -909.54822    13.273352    13.323447    13.348865    1.4300489    422.00687    3540.4989 
  314000    286.68094   -931.17846            0    -926.2129   -1253.2071    13.273352    13.323447    13.348865    1.5974392    423.97854    3538.4378 
  315000    329.74526   -930.59078            0   -924.87931    369.75989    13.273352    13.323447    13.348865    1.2647543    425.95175    3536.3901 
  316000    279.71117     -930.723            0   -925.87817   -778.83068    13.273352    13.323447    13.348865    1.2753916    427.92596    3534.3514 
  317000    304.26959    -931.3833            0   -926.11309    -2063.824    13.273352    13.323447    13.348865    1.3466534    429.89834    3532.2984 
  318000    325.56912   -930.84908            0   -925.20994   -500.86848    13.273352    13.323447    13.348865    1.1872814    431.86985    3530.2388 
  319000    289.65617   -931.00846            0   -925.99137   -390.21103    13.273352    13.323447    13.348865    1.4837775     433.8419    3528.1846 
  320000    302.96019   -931.42641            0   -926.17887   -1807.6319    13.273352    13.323447    13.348865    1.3167985    435.81309    3526.1241 
  321000    298.36487   -930.42532            0   -925.25738   -1087.9396    13.273352    13.323447    13.348865    1.3608459    437.78866    3524.0996 
  322000    329.34341   -930.47462            0   -924.77011   -155.83507    13.273352    13.323447    13.348865    1.8167858    439.76483    3522.0805 
  323000    310.64465   -931.41653            0    -926.0359   -1151.3412    13.273352    13.323447    13.348865    1.6390052    441.74341    3520.0809 
  324000    289.40908   -931.31214            0   -926.29932   -1207.6213    13.273352    13.323447    13.348865    1.1342177    443.71943    3518.0612 
  325000     317.3054   -930.59346            0   -925.09746    -1580.502    13.273352    13.323447    13.348865    1.4084906    445.69715    3516.0553 
  326000    318.69203   -931.72598            0   -926.20596   -1584.7794    13.273352    13.323447    13.348865    1.4600166    447.67309    3514.0357 
  327000    298.54987   -931.21157            0   -926.04043   -1606.7013    13.273352    13.323447    13.348865    1.5607849    449.65287    3512.0465 
  328000    298.56114   -930.34959            0   -925.17825   -1087.9696    13.273352    13.323447    13.348865    1.3289937    451.63179    3510.0506 
  329000    313.90463    -931.2548            0    -925.8177   -1022.7406    13.273352    13.323447    13.348865    1.4278891    453.60796    3508.0336 
  330000    265.98508   -930.92759            0    -926.3205   -1223.5907    13.273352    13.323447    13.348865    1.7592111    455.58478     3506.022 
  331000      323.752   -930.73147            0    -925.1238   -617.10302    13.273352    13.323447    13.348865    1.5275836    457.56299    3504.0214 
  332000    309.10972   -931.43689            0   -926.08284   -1666.8564    13.273352    13.323447    13.348865    1.8112846    459.54196    3502.0267 
  333000    286.46777   -930.95666            0    -925.9948   -931.90259    13.273352    13.323447    13.348865    1.3202396    461.51818    3500.0113 
  334000    324.58858   -931.18287            0   -925.56071   -740.63161    13.273352    13.323447    13.348865    1.7587001    463.49718    3498.0172 
  335000    304.06041   -931.64088            0    -926.3743   -1609.4427    13.273352    13.323447    13.348865      1.31464    465.47432    3496.0093 
  336000    295.43393   -931.32129            0   -926.20412   -953.90591    13.273352    13.323447    13.348865    1.4831896    467.45025    3493.9926 
  337000    318.43199   -931.04503            0   -925.52951   -1510.2542    13.273352    13.323447    13.348865    1.4224165    469.42309    3491.9532 
  338000    297.10584   -931.54723            0    -926.4011   -1409.4123    13.273352    13.323447    13.348865    1.4191425    471.39218    3489.8866 
  339000    319.65499   -930.93034            0   -925.39364   -1022.9892    13.273352    13.323447    13.348865    1.8428866    473.36389    3487.8402 
  340000    320.53246   -931.30434            0   -925.75244    -1105.577    13.273352    13.323447    13.348865    1.4216995    475.33435    3485.7853 
  341000    289.91425   -931.33003            0   -926.30847   -2058.0611    13.273352    13.323447    13.348865    1.2679164    477.30737    3483.7497 
  342000    350.47155   -931.48485            0   -925.41438   -779.70494    13.273352    13.323447    13.348865    1.6274833    479.28184    3481.7251 
  343000    335.60515   -930.78103            0   -924.96806   -1087.5913    13.273352    13.323447    13.348865     1.358541    481.25298    3479.6769 
  344000    318.05986   -931.56197            0    -926.0529    -1126.958    13.273352    13.323447    13.348865    1.3369228    483.22413    3477.6294 
  345000    284.42836   -931.14328            0   -926.21674   -330.74255    13.273352    13.323447    13.348865    1.6277708    485.19576     3475.586 
  346000    353.90559   -931.19621            0   -925.06626   -889.82535    13.273352    13.323447    13.348865    1.4009863    487.16737    3473.5429 
  347000    306.61867   -931.46042            0   -926.14952   -774.66848    13.273352    13.323447    13.348865    1.5658993    489.13864    3471.4981 
  348000    290.25973   -931.04203            0   -926.01449   -1503.8061    13.273352    13.323447    13.348865    1.3023905    491.10959    3469.4516 
  349000    338.82833   -930.75786            0   -924.88906     47.54212    13.273352    13.323447    13.348865    1.4335782    493.08064    3467.4064 
  350000     321.0048   -931.61853            0   -926.05846   -931.26625    13.273352    13.323447    13.348865    1.5474809    495.05278    3465.3695 
  351000    291.39291   -931.13036            0   -926.08318   -379.14682    13.273352    13.323447    13.348865     1.185545    497.02293    3463.3192 
  352000    304.37253   -930.23966            0   -924.96767   -1384.0078    13.273352    13.323447    13.348865    2.0175919    498.99498    3461.2826 
  353000    294.13746    -931.3932            0   -926.29849    -1207.985    13.273352    13.323447    13.348865    1.1307599    500.96921    3459.2617 
  354000    271.86475   -930.74938            0   -926.04045   -1406.2267    13.273352    13.323447    13.348865    1.5867826     502.9394    3457.2134 
  355000    332.96048   -931.03058            0   -925.26342   -474.66293    13.273352    13.323447    13.348865    1.3422047    504.91551    3455.2061 
  356000    254.14679   -931.07984            0    -926.6778   -585.11375    13.273352    13.323447    13.348865    1.1934389    506.89009    3453.1887 
  357000    342.65312    -931.5853            0   -925.65025   -1069.4545    13.273352    13.323447    13.348865    1.3588668    508.85782    3451.1252 
  358000    297.36129   -931.07045            0    -925.9199   -922.17699    13.273352    13.323447    13.348865    1.3398084     510.8289    3449.0851 
  359000    266.11912   -931.28181            0    -926.6724   -1145.1853    13.273352    13.323447    13.348865    1.3093036    512.80129    3447.0542 
  360000    318.46129    -931.2682            0   -925.75217   -1414.6874    13.273352    13.323447    13.348865    1.4559724    514.77299    3445.0192 
  361000    299.69492   -931.19735            0   -926.00638   -1807.2419    13.273352    13.323447    13.348865    1.0854723    516.74461    3442.9842 
  362000    253.81859   -931.44398            0   -927.04762   -1794.0635    13.273352    13.323447    13.348865    1.1293999    518.71546    3440.9445 
  363000    298.16366   -931.16837            0   -926.00392   -1181.1768    13.273352    13.323447    13.348865    1.4381822    520.68777     3438.915 
  364000    304.41358   -930.94573            0   -925.67302   -753.55891    13.273352    13.323447    13.348865    1.6463345    522.65951    3436.8822 
  365000     252.1177   -930.85262            0   -926.48573   -610.73493    13.273352    13.323447    13.348865    1.5074983    524.62932    3434.8373 
  366000    285.41086    -930.9778            0   -926.03424   -1887.3629    13.273352    13.323447    13.348865    1.2424312    526.60058    3432.8023 
  367000    328.29547   -931.23932            0   -925.55296   -1441.6195    13.273352    13.323447    13.348865    1.6183293    528.57139    3430.7649 
  368000    287.39543   -931.28457            0   -926.30663   -2517.2527    13.273352    13.323447    13.348865    1.3078507    530.54241    3428.7293 
  369000      293.651   -930.87008            0   -925.78379   -57.869451    13.273352    13.323447    13.348865    1.9071593    532.51123    3426.6801 
  370000    297.42401   -930.62736            0   -925.47572   -745.82415    13.273352    13.323447    13.348865    1.3324936    534.48252    3424.6473 
  371000    294.57548   -931.58948            0   -926.48718   -2655.2013    13.273352    13.323447    13.348865     1.439632    536.45197    3422.6032 
  372000    303.37681   -930.69089            0   -925.43614   -435.40032    13.273352    13.323447    13.348865    1.2923119    538.42258     3420.567 
  373000    312.96345   -930.55772            0   -925.13692   -801.73616    13.273352    13.323447    13.348865    1.4986733    540.39549    3418.5458 
  374000    275.01978   -930.99412            0   -926.23054   -961.01896    13.273352    13.323447    13.348865    1.2266901     542.3656    3416.5074 
  375000    288.62032   -931.11418            0   -926.11503   -2361.0066    13.273352    13.323447    13.348865    1.2627667    544.33735    3414.4797 
  376000    320.71655   -930.84392            0   -925.28883   -1582.5304    13.273352    13.323447    13.348865     1.278275    546.30828    3412.4474 
  377000    292.62439   -931.03206            0   -925.96355    -1577.007    13.273352    13.323447    13.348865    1.1411631     548.2792    3410.4154 
  378000    287.43674   -930.97125            0    -925.9926    -1556.316    13.273352    13.323447    13.348865    1.3209766    550.24967     3408.381 
  379000    313.49736   -930.40263            0   -924.97259   -805.95016    13.273352    13.323447    13.348865    1.2749425    552.22012    3406.3471 
  380000    288.81356   -931.08757            0   -926.08507   -1116.0792    13.273352    13.323447    13.348865    1.2731069    554.19377    3404.3331 
  381000    284.12677   -931.04993            0   -926.12861   -1035.6057    13.273352    13.323447    13.348865    1.6194453    556.16419    3402.2998 
  382000    326.23453    -930.3695            0   -924.71884   -925.66983    13.273352    13.323447    13.348865    1.3493759    558.13529     3400.271 
  383000    294.79569   -931.26625            0   -926.16014   -2221.4321    13.273352    13.323447    13.348865    1.2674447    560.10578    3398.2389 
  384000    311.43418   -931.35255            0   -925.95825   -1048.9155    13.273352    13.323447    13.348865    1.3826768    562.07898    3396.2237 
  385000    307.35066   -930.72463            0   -925.40105   -1035.0823    13.273352    13.323447    13.348865    1.6343985     564.0479     3394.183 
  386000    283.52118    -931.4822            0   -926.57137   -1469.9148    13.273352    13.323447    13.348865    1.2125721    566.01896    3392.1556 
  387000    278.41558   -930.71693            0   -925.89453    344.38822    13.273352    13.323447    13.348865    1.4023047    567.98805    3390.1169 
  388000    331.61179   -931.39989            0   -925.65609   -1061.8947    13.273352    13.323447    13.348865    1.1847939    569.95809    3388.0842 
  389000    304.37615   -931.64879            0   -926.37673   -2053.5682    13.273352    13.323447    13.348865    1.5408969    571.92717    3386.0463 
  390000    272.10649   -931.47623            0   -926.76311   -1924.5316    13.273352    13.323447    13.348865    1.6019538     573.8972    3384.0145 
  391000    322.07143   -931.07684            0   -925.49829   -467.15037    13.273352    13.323447    13.348865    1.7157667    575.86748    3381.9846 
  392000     280.2086   -931.11862            0   -926.26516   -646.05936    13.273352    13.323447    13.348865    1.4891212    577.83607    3379.9452 
  393000    263.24238   -931.16438            0   -926.60479   -1831.0924    13.273352    13.323447    13.348865    1.5766626    579.80749    3377.9228 
  394000    317.06176   -931.45015            0   -925.95837    -1989.311    13.273352    13.323447    13.348865    1.5106676    581.77735    3375.8917 
  395000     321.9362   -931.00043            0   -925.42421   -34.652306    13.273352    13.323447    13.348865    1.3047881    583.74716    3373.8607 
  396000    302.41091   -931.84318            0   -926.60517   -1487.1945    13.273352    13.323447    13.348865    1.2265336    585.71771    3371.8344 
  397000    314.94804   -931.28246            0   -925.82729   -2626.8964    13.273352    13.323447    13.348865    1.3202353    587.69042    3369.8208 
  398000    289.75867   -930.64589            0   -925.62702   -1355.5693    13.273352    13.323447    13.348865      1.39517      589.669    3367.8411 
  399000    274.15688   -931.02879            0   -926.28015   -2018.0287    13.273352    13.323447    13.348865    1.2433546    591.64658    3365.8556 
  400000    272.97681   -931.50269            0    -926.7745   -2313.8904    13.273352    13.323447    13.348865    1.1593079    593.62731    3363.8881 
  401000    310.13178    -930.9145            0   -925.54275   -1570.1454    13.273352    13.323447    13.348865    1.6371786    595.59638    3361.8546 
  402000    295.50155   -931.09906            0   -925.98072   -1925.4057    13.273352    13.323447    13.348865    1.2697344    597.56452    3359.8164 
  403000    288.43802   -931.70325            0   -926.70725   -2616.3866    13.273352    13.323447    13.348865    1.0817839    599.53167    3357.7731 
  404000    307.90025   -931.30441            0   -925.97131   -981.56423    13.273352    13.323447    13.348865   0.98847247    601.50261    3355.7514 
  405000    307.31063   -930.82094            0   -925.49806    108.19486    13.273352    13.323447    13.348865    1.5832357    603.47506    3353.7385 
  406000    291.85993   -931.76678            0   -926.71152   -2618.6835    13.273352    13.323447    13.348865    1.2671345    605.44994    3351.7392 
  407000    304.68768   -931.02379            0   -925.74633   -1033.6067    13.273352    13.323447    13.348865    1.3771802    607.42311    3349.7307 
  408000    336.75714   -931.60099            0   -925.76807   -1059.5725    13.273352    13.323447    13.348865    1.2616764     609.3971    3347.7269 
  409000    306.50588   -931.54262            0   -926.23368   -1089.9255    13.273352    13.323447    13.348865    1.3160352    611.36827    3345.7079 
  410000      286.131   -931.59709            0   -926.64106   -1056.1323    13.273352    13.323447    13.348865    1.2692251     613.3399    3343.6917 
  411000    345.70048   -931.45934            0   -925.47151   -1107.8929    13.273352    13.323447    13.348865    1.5934235    615.31336    3341.6857 
  412000    308.12807   -931.51687            0   -926.17983   -2291.1987    13.273352    13.323447    13.348865    1.3948502    617.28623    3339.6768 
  413000    254.91803   -931.00296            0   -926.58756   -1584.8442    13.273352    13.323447    13.348865    1.1170146    619.29677    3337.8711 
  414000    323.03975   -931.38272            0   -925.78739   -1609.1817    13.273352    13.323447    13.348865    1.4700027    621.27856    3335.9097 
  415000    295.60785   -931.02457            0   -925.90439   -1106.4071    13.273352    13.323447    13.348865    1.3580274    623.27146    3334.0076 
  416000    276.70396    -931.4964            0   -926.70365   -1999.2522    13.273352    13.323447    13.348865    1.7486545    625.24727    3332.0139 
  417000    332.40052   -931.37528            0   -925.61782   -1825.0145    13.273352    13.323447    13.348865    1.4457619    627.24523    3330.1379 
  418000    283.81031   -930.94453            0   -926.02869   -1618.8124    13.273352    13.323447    13.348865    1.3675463    629.22044    3328.1408 
  419000    257.86514   -931.77966            0   -927.31321   -2285.3222    13.273352    13.323447    13.348865    1.1920197    631.20636    3326.2003 
  420000    268.63407   -930.94702            0   -926.29405   -1807.5325    13.273352    13.323447    13.348865    1.4623692     633.2211    3324.4108 
  421000    332.08157    -931.2571            0   -925.50517   -1308.6965    13.273352    13.323447    13.348865    1.5218629    635.24763    3322.6815 
  422000    305.56209   -931.52183            0   -926.22923   -1914.3411    13.273352    13.323447    13.348865    1.1852162    637.22643    3320.7017 
  423000    237.09581   -930.53054            0   -926.42383   -1317.3042    13.273352    13.323447    13.348865    1.3555209    639.21038    3318.7486 
  424000    288.22733    -930.7905            0   -925.79816   -237.24008    13.273352    13.323447    13.348865    1.3479683    641.20816    3316.8669 
  425000    307.41739   -931.32758            0   -926.00284   -1262.9776    13.273352    13.323447    13.348865    1.7705169    643.19112    3314.9081 
  426000    264.17191   -931.56922            0   -926.99353   -1773.2433    13.273352    13.323447    13.348865    1.4552215     645.1938    3313.0504 
  427000    299.16979   -931.00072            0   -925.81884   -1798.4825    13.273352    13.323447    13.348865    1.4365431    647.18208    3311.1181 
  428000    297.33226   -931.03467            0   -925.88462   -524.41666    13.273352    13.323447    13.348865    1.5685498    649.17625    3309.2155 
  429000    287.91681    -931.9873            0   -927.00034   -2889.3847    13.273352    13.323447    13.348865    1.1574066    651.15467    3307.2324 
  430000      293.382   -930.70182            0   -925.62019   -632.13364    13.273352    13.323447    13.348865    1.3713032    653.13119    3305.2396 
  431000    302.60168   -931.23519            0   -925.99387   -1698.4072    13.273352    13.323447    13.348865     1.288818    655.11371    3303.2773 
  432000    275.13213   -931.44414            0   -926.67862   -1573.3827    13.273352    13.323447    13.348865     1.249835    657.11386    3301.4033 
  433000     323.5073   -930.86649            0   -925.26307   -1777.7306    13.273352    13.323447    13.348865    1.3262575    659.10341    3299.4756 
  434000    285.19649      -931.21            0   -926.27015     -934.934    13.273352    13.323447    13.348865    1.4578634    661.07866    3297.4762 
  435000    312.92182   -931.52251            0   -926.10244    -1448.356    13.273352    13.323447    13.348865     1.460975    663.06503    3295.5322 
  436000    327.73991   -930.51921            0   -924.84247   -407.98326    13.273352    13.323447    13.348865    1.5139828    665.05311    3293.5963 
  437000    251.60121   -930.54057            0   -926.18262      -1654.5    13.273352    13.323447    13.348865    1.7722631    667.03964    3291.6526 
  438000    288.91729   -931.01408            0   -926.00978   -1880.2127    13.273352    13.323447    13.348865    1.8447229    669.03678    3289.7607 
  439000    310.91798   -930.49572            0   -925.11036    -1257.486    13.273352    13.323447    13.348865    1.4815122     671.0116    3287.7589 
  440000    285.15883   -930.82343            0   -925.88423   -508.18952    13.273352    13.323447    13.348865    1.5657327      673.011    3285.8772 
  441000    296.71222   -931.23712            0   -926.09781   -1736.7439    13.273352    13.323447    13.348865    1.6565819    674.98257    3283.8595 
  442000    334.04516   -931.42359            0   -925.63764    -2299.701    13.273352    13.323447    13.348865    1.5190971    676.97852    3281.9602 
  443000    269.78518   -930.38353            0   -925.71062   -1088.9161    13.273352    13.323447    13.348865    1.4297205    678.95409    3279.9619 
  444000    296.65436   -931.72692            0   -926.58861   -2006.8125    13.273352    13.323447    13.348865    1.0791656    680.96011    3278.1103 
  445000    295.40252   -930.75371            0   -925.63708   -1524.4223    13.273352    13.323447    13.348865    1.3842205    682.94078    3276.1362 
  446000    334.51792   -931.74615            0   -925.95201   -2599.9944    13.273352    13.323447    13.348865     1.274099    684.92036    3274.1569 
  447000    293.39039   -931.59051            0   -926.50874   -3038.6428    13.273352    13.323447    13.348865    1.5241579    686.90842    3272.2179 
  448000    323.47114   -931.14337            0   -925.54058   -946.97281    13.273352    13.323447    13.348865     1.232195    688.88407    3270.2198 
  449000    327.47603   -931.45775            0   -925.78558   -1687.7271    13.273352    13.323447    13.348865    1.2402268    690.86723    3268.2573 
  450000    295.73725   -931.54776            0   -926.42534   -1651.1844    13.273352    13.323447    13.348865    1.1544235    692.84064    3266.2488 
  451000     308.3886   -931.12682            0   -925.78526   -2250.7298    13.273352    13.323447    13.348865    1.7187207    694.81784    3264.2582 
  452000    354.95697   -931.37998            0   -925.23182   -833.44409    13.273352    13.323447    13.348865    1.4364748    696.79449    3262.2651 
  453000     293.1613   -931.40823            0   -926.33042   -1298.6215    13.273352    13.323447    13.348865    1.6514478    698.77773    3260.3029 
  454000    305.55671   -931.46901            0    -926.1765   -869.89083    13.273352    13.323447    13.348865    1.0932796    700.77194    3258.3916 
  455000    290.00202   -930.34586            0   -925.32277   -1284.4102    13.273352    13.323447    13.348865      1.87871     702.7453    3256.3831 
  456000    299.86828    -931.2574            0   -926.06342   -1528.6183    13.273352    13.323447    13.348865    1.0537682    704.73754    3254.4621 
  457000    300.58236   -931.28834            0     -926.082   -1795.1904    13.273352    13.323447    13.348865    1.3801539    706.71592    3252.4769 
  458000    326.47852   -930.68239            0    -925.0275   -572.50012    13.273352    13.323447    13.348865    1.6716974    708.71162    3250.5712 
  459000    311.33117   -931.59608            0   -926.20356   -2034.8395    13.273352    13.323447    13.348865    1.2417025    710.69227    3248.5961 
  460000    277.29194    -930.6339            0   -925.83096   -14.804731    13.273352    13.323447    13.348865    1.2549438    712.68684    3246.6845 
  461000    325.03443   -930.28703            0   -924.65716      118.994    13.273352    13.323447    13.348865    1.5152559    714.66131    3244.6812 
  462000    290.74802   -930.93132            0   -925.89532   -1398.2135    13.273352    13.323447    13.348865    1.3056634     716.6537     3242.759 
  463000    280.18976   -931.01992            0   -926.16679    -1311.143    13.273352    13.323447    13.348865    1.4453926     718.6399    3240.8086 
  464000    304.56911   -930.71273            0   -925.43734   -1120.1855    13.273352    13.323447    13.348865    1.5218799    720.61603    3238.8127 
  465000    294.43578   -930.84043            0   -925.74055   -374.39776    13.273352    13.323447    13.348865    1.7571609    722.59328    3236.8219 
  466000    293.41956   -931.41806            0   -926.33579   -1914.9408    13.273352    13.323447    13.348865    1.5640739    724.56674    3234.8143 
  467000    335.98039   -931.20775            0   -925.38828   -1863.6321    13.273352    13.323447    13.348865    1.5239859    726.55403    3232.8685 
  468000    283.63906   -930.60283            0   -925.68996    56.712239    13.273352    13.323447    13.348865     1.691747    728.53389    3230.8894 
  469000    298.64564   -931.66566            0   -926.49286   -2297.5603    13.273352    13.323447    13.348865    1.3789821    730.51218    3228.9035 
  470000    298.82909   -930.49513            0   -925.31916   -129.68959    13.273352    13.323447    13.348865     1.330326    732.48635    3226.8993 
  471000     289.8177   -930.76021            0   -925.74032   -1566.9638    13.273352    13.323447    13.348865    1.7346306    734.46255    3224.9043 
  472000    298.17889   -931.14621            0   -925.98149   -1588.5333    13.273352    13.323447    13.348865    1.4881325    736.43692    3222.9014 
  473000    291.46793   -931.02072            0   -925.97225   -969.42691    13.273352    13.323447    13.348865    1.1962129    738.48424    3221.2168 
  474000    310.95128   -930.96087            0   -925.57492   -1131.9161    13.273352    13.323447    13.348865    1.5387163     740.5489    3219.6057 
  475000    300.19178   -931.67314            0   -926.47356    -1596.574    13.273352    13.323447    13.348865    1.3953486    742.53033    3217.6314 
  476000    294.37025   -931.11823            0   -926.01948    -964.2445    13.273352    13.323447    13.348865    1.2728836    744.52432    3215.7114 
  477000    330.99168   -931.28064            0   -925.54758   -1050.9918    13.273352    13.323447    13.348865    1.4385591    746.50314    3213.7257 
  478000    255.47495   -930.85481            0   -926.42977   -907.98727    13.273352    13.323447    13.348865    1.2868253    748.55142    3212.0381 
  479000    333.60786   -930.90291            0   -925.12453   -1187.8334    13.273352    13.323447    13.348865    1.4385328    750.54596    3210.1187 
  480000    291.76052   -930.95264            0   -925.89909   -1476.0248    13.273352    13.323447    13.348865    1.3708648    752.52454    3208.1309 
  481000    306.85947   -931.52964            0   -926.21457   -1944.2857    13.273352    13.323447    13.348865    1.2671885    754.49845    3206.1233 
[...]
 1980000    281.92692   -931.32637            0   -926.44316   -2034.7725    13.273352    13.323447    13.348865    1.6155047     3723.047     237.6413 
 1981000    301.91191   -930.67893            0   -925.44956    -1557.805    13.273352    13.323447    13.348865    1.2579972    3725.0245    235.66078 
 1982000    276.87436   -931.52475            0   -926.72905   -2297.8966    13.273352    13.323447    13.348865    1.1574446    3726.9996     233.6801 
 1983000    289.36413   -931.38464            0   -926.37261   -2733.8881    13.273352    13.323447    13.348865    1.1736286    3728.9693     231.6991 
 1984000    301.71655   -930.90571            0   -925.67972    -2033.726    13.273352    13.323447    13.348865    1.3307248    3730.9396    229.71815 
 1985000    259.20197   -931.19457            0   -926.70497   -1559.6079    13.273352    13.323447    13.348865    1.3541636    3732.9116    227.73731 
 1986000    293.91077   -931.41064            0   -926.31985   -2879.3422    13.273352    13.323447    13.348865    1.3332829    3734.8815    225.75636 
 1987000    313.86812   -931.19319            0   -925.75672   -1524.1168    13.273352    13.323447    13.348865     1.258198    3736.8563    223.77571 
 1988000    307.67615   -931.44475            0   -926.11553   -1662.4148    13.273352    13.323447    13.348865    1.3108263    3738.8321    221.79512 
 1989000    294.72331   -931.70004            0   -926.59518   -1765.7471    13.273352    13.323447    13.348865    1.7516417    3740.8083    219.81457 
 1990000    298.05645   -930.63157            0   -925.46898   -272.86435    13.273352    13.323447    13.348865    1.5487663    3742.7834    217.83396 
 1991000    279.47444    -931.0375            0   -926.19677   -657.72281    13.273352    13.323447    13.348865    1.3683296    3744.7527    215.85301 
 1992000    250.53686   -931.81435            0   -927.47483   -1420.7635    13.273352    13.323447    13.348865    1.3806779    3746.7227    213.87212 
 1993000    292.93313   -931.31996            0   -926.24611   -1589.8693    13.273352    13.323447    13.348865    1.0401458    3748.7478    211.89436 
 1994000    285.00458    -930.4587            0   -925.52217   -1059.8615    13.273352    13.323447    13.348865    1.6607937    3750.7378    209.91458 
 1995000    279.15931   -931.24988            0    -926.4146    -1889.296    13.273352    13.323447    13.348865    1.9359807    3752.7128    207.93396 
 1996000    296.93016   -931.31902            0   -926.17594   -1287.7389    13.273352    13.323447    13.348865    1.6214671    3754.7108     205.9546 
 1997000    306.13887   -930.84532            0   -925.54273   -813.55686    13.273352    13.323447    13.348865    1.4515145    3756.6958    203.97452 
 1998000    287.24101   -931.39017            0    -926.4149   -159.14701    13.273352    13.323447    13.348865    1.1883095    3758.7242    201.99677 
 1999000    344.46519   -931.51833            0   -925.55189   -1230.8885    13.273352    13.323447    13.348865    1.3330011    3760.7138     200.0169 
 2000000    307.77792   -930.96045            0   -925.62947   -812.28769    13.273352    13.323447    13.348865     1.485987    3762.7222    198.03801 
 2001000    283.95304    -931.1616            0   -926.24329   -1762.6436    13.273352    13.323447    13.348865       1.2658    3764.7211     196.0586 
 2002000    313.05812   -931.27875            0   -925.85631    -1893.551    13.273352    13.323447    13.348865    1.6004032    3766.7514    194.08078 
 2003000    327.58686   -930.68401            0   -925.00992   -1430.0677    13.273352    13.323447    13.348865    1.7335843    3768.7957    192.10361 
 2004000    301.40115   -931.08451            0   -925.86399   -1233.9017    13.273352    13.323447    13.348865    1.2467204    3770.7869    190.12371 
 2005000    283.19269   -931.11637            0   -926.21123   -1692.9143    13.273352    13.323447    13.348865    1.1657229    3772.7644    188.14311 
 2006000    317.84507   -930.36684            0   -924.86149    123.47673    13.273352    13.323447    13.348865    1.2455233    3774.7935    186.16505 
 2007000    311.22552   -931.05266            0   -925.66196   -749.53707    13.273352    13.323447    13.348865    1.6699457     3776.788    184.18526 
 2008000     306.8021   -931.37835            0   -926.06427   -1517.2097    13.273352    13.323447    13.348865    1.7765795     3778.804    182.20648 
 2009000    285.94371   -931.15123            0   -926.19844    -2371.419    13.273352    13.323447    13.348865    1.4645035    3780.7891     180.2262 
 2010000    321.58058    -930.8482            0   -925.27815   -1311.5827    13.273352    13.323447    13.348865    1.3631391    3782.8367    178.24885 
 2011000    295.88231   -931.59602            0   -926.47109   -1471.0025    13.273352    13.323447    13.348865    1.3808651    3784.8221    176.26853 
 2012000    291.50056   -931.19255            0   -926.14351   -2148.9839    13.273352    13.323447    13.348865    1.3407373    3786.8265    174.28908 
 2013000    328.00379    -931.2769            0   -925.59559   -941.76689    13.273352    13.323447    13.348865    1.4188272    3788.8054    172.30845 
 2014000     282.2931   -932.05282            0   -927.16326    -2632.627    13.273352    13.323447    13.348865    1.2276707    3790.8278    170.32978 
 2015000    275.11104   -930.94537            0   -926.18021   -1814.9417    13.273352    13.323447    13.348865    1.2969464    3792.8005    168.34885 
 2016000    293.79376   -930.62677            0   -925.53801   -1826.7209    13.273352    13.323447    13.348865    1.9446106    3794.8014    166.36916 
 2017000    283.19979   -931.56341            0   -926.65815   -1349.7826    13.273352    13.323447    13.348865     1.358314    3796.8223    164.39032 
 2018000     303.4977   -931.34912            0   -926.09227      -521.38    13.273352    13.323447    13.348865    1.4472836    3798.7984    162.40952 
 2019000    298.02525   -931.01285            0    -925.8508   -1072.7195    13.273352    13.323447    13.348865    1.2716368    3800.8389    160.43145 
 2020000    304.75211   -931.54155            0   -926.26298   -2236.8807    13.273352    13.323447    13.348865    1.4719707    3802.8142    158.45059 
 2021000    294.14996   -931.46713            0    -926.3722   -2428.8968    13.273352    13.323447    13.348865    1.9009674    3804.7928    156.46987 
 2022000    325.83183    -930.9584            0   -925.31471   -307.09073    13.273352    13.323447    13.348865    1.2739266    3806.7672    154.48899 
 2023000     271.1229   -931.16965            0   -926.47357   -1898.6256    13.273352    13.323447    13.348865    1.2808197    3808.8077    152.51076 
 2024000    313.26298   -931.72913            0   -926.30315   -2457.3714    13.273352    13.323447    13.348865    1.0929251    3810.7818    150.52984 
 2025000    305.19787   -930.75715            0   -925.47086    -2469.027    13.273352    13.323447    13.348865    1.4665161    3812.8433    148.55234 
 2026000     272.4778   -931.09825            0    -926.3787   -2059.2081    13.273352    13.323447    13.348865    1.8734382    3814.8229     146.5716 
 2027000    282.82289   -931.16512            0   -926.26638    -2189.123    13.273352    13.323447    13.348865    1.5187788    3816.7965    144.59063 
 2028000    308.62976    -930.9803            0   -925.63456   -904.71401    13.273352    13.323447    13.348865    1.7648726    3818.8713    142.61345 
 2029000    292.11478   -931.16938            0    -926.1097   -2463.9261    13.273352    13.323447    13.348865    1.6913533    3820.8639    140.63315 
 2030000    282.33324   -931.83321            0   -926.94296   -2585.8004    13.273352    13.323447    13.348865    1.5538831    3822.8457    138.65243 
 2031000    317.18183   -931.45182            0   -925.95796   -1226.0137    13.273352    13.323447    13.348865    1.2361976    3824.8161    136.67132 
 2032000     326.7303   -931.32377            0   -925.66452   -1397.9579    13.273352    13.323447    13.348865    1.6351916    3826.8927    134.69395 
 2033000    260.20943   -931.39811            0   -926.89106   -2020.6114    13.273352    13.323447    13.348865    1.2511676    3828.8813    132.71342 
 2034000    305.64386   -931.31382            0   -926.01981   -2562.8449    13.273352    13.323447    13.348865    1.5643525    3830.8532    130.73232 
 2035000    318.68643   -931.37273            0    -925.8528   -1319.2441    13.273352    13.323447    13.348865    1.1293929    3832.8875    128.75333 
 2036000    293.44817   -931.22442            0   -926.14164   -816.53412    13.273352    13.323447    13.348865     1.372852    3834.8715    126.77261 
 2037000    285.05185   -931.32569            0   -926.38834   -1817.1739    13.273352    13.323447    13.348865    1.3034496    3836.8852    124.79286 
 2038000    321.41505   -930.82361            0   -925.25643   -937.29183    13.273352    13.323447    13.348865    1.2398465    3838.8562    122.81171 
 2039000     292.7086   -931.56206            0   -926.49209   -1533.1959    13.273352    13.323447    13.348865    1.7286277    3840.8432    120.83106 
 2040000    281.79387   -931.06368            0   -926.18277   -750.76536    13.273352    13.323447    13.348865    1.4085144    3842.8335    118.85052 
 2041000    330.90187   -931.22248            0   -925.49098    -2832.629    13.273352    13.323447    13.348865    1.6909723    3844.8601    116.87107 
 2042000     269.5679   -931.51141            0   -926.84227   -1613.7209    13.273352    13.323447    13.348865    1.2504954    3846.8465    114.89037 
 2043000    305.87185   -931.20897            0   -925.91101   -551.24832    13.273352    13.323447    13.348865    1.2749896    3848.8245    112.90942 
 2044000    303.80828   -931.07637            0   -925.81415   -602.75262    13.273352    13.323447    13.348865    1.4203594    3850.8624    110.93019 
 2045000    259.54106   -931.57073            0   -927.07525   -2128.2931    13.273352    13.323447    13.348865    1.5246193    3852.8787     108.9503 
 2046000    276.69672   -931.25503            0   -926.46241   -1646.1452    13.273352    13.323447    13.348865    1.6360742    3854.8671    106.96959 
 2047000    315.19801   -931.18883            0   -925.72933   -743.11044    13.273352    13.323447    13.348865    1.2843815    3856.8452     104.9886 
 2048000    289.68714   -930.90883            0    -925.8912   -1197.9827    13.273352    13.323447    13.348865    1.5419275    3858.9335    103.01054 
 2049000    280.27772   -931.55415            0   -926.69949   -2647.5553    13.273352    13.323447    13.348865    1.8157986    3860.9591    101.03074 
 2050000    277.08982   -930.39246            0   -925.59302   -125.26155    13.273352    13.323447    13.348865    1.7519752    3863.0091    99.051516 
 2051000     305.6409   -931.27193            0   -925.97797   -1765.1771    13.273352    13.323447    13.348865    1.2550998    3864.9988    97.070702 
 2052000    286.49108   -931.95718            0   -926.99491   -1897.3831    13.273352    13.323447    13.348865    1.4720012    3866.9748    95.089545 
 2053000    305.61553   -931.17762            0   -925.88409   -940.70651    13.273352    13.323447    13.348865    1.8144514    3869.0254    93.110187 
 2054000     299.9569   -930.92826            0   -925.73275   -1498.4462    13.273352    13.323447    13.348865     1.587453    3871.0141    91.129298 
 2055000    272.10803   -931.50145            0   -926.78831    -1639.925    13.273352    13.323447    13.348865    1.2516425    3873.0628    89.149784 
 2056000    305.46368   -930.78128            0   -925.49039   -987.79012    13.273352    13.323447    13.348865    1.5117757    3875.0622    87.169088 
 2057000    313.36302   -931.34009            0   -925.91237   -1246.8181    13.273352    13.323447    13.348865    1.4478507    3877.0523     85.18817 
 2058000    286.98906   -931.47788            0   -926.50699   -1055.2427    13.273352    13.323447    13.348865    1.4062439    3879.1195    83.208896 
 2059000    327.40022   -930.77758            0   -925.10673   -92.511781    13.273352    13.323447    13.348865    1.7714045    3881.0888    81.227484 
 2060000    292.96662   -931.27872            0   -926.20428   -2173.0601    13.273352    13.323447    13.348865    1.3796283    3883.1114    79.247172 
 2061000    302.36618    -931.2436            0   -926.00636   -1560.5008    13.273352    13.323447    13.348865     1.234044    3885.0879    77.265898 
 2062000    366.11345   -930.84853            0   -924.50713   -452.90824    13.273352    13.323447    13.348865    1.4715359    3887.0783      75.2849 
 2063000     302.3052   -931.06543            0   -925.82924   -1950.8778    13.273352    13.323447    13.348865    1.4877092    3889.0769    73.304048 
 2064000    282.45826   -931.25072            0    -926.3583   -1445.9433    13.273352    13.323447    13.348865    1.2601276    3891.0698    71.323072 
 2065000    337.74865   -930.89459            0    -925.0445   -240.57252    13.273352    13.323447    13.348865    1.7129237    3893.0968    69.342691 
 2066000    321.58902   -931.50679            0   -925.93659   -1327.0657    13.273352    13.323447    13.348865    1.4399065    3895.0898    67.361675 
 2067000     295.5595   -931.17447            0   -926.05512   -568.40458    13.273352    13.323447    13.348865    1.3159591    3897.0862    65.380704 
 2068000    300.31133   -930.29102            0   -925.08937   -177.63047    13.273352    13.323447    13.348865     1.940581    3899.0828     63.39972 
 2069000    332.26556   -931.30665            0   -925.55153   -975.35436    13.273352    13.323447    13.348865     1.220076    3901.1206    61.419369 
 2070000    269.51128   -930.77737            0    -926.1092   -1040.3531    13.273352    13.323447    13.348865    1.3849729     3903.102    59.438101 
 2071000    300.46816   -930.93686            0    -925.7325   -1226.5613    13.273352    13.323447    13.348865    1.2677223    3905.0801    57.456785 
 2072000    346.13417   -931.22383            0   -925.22849   -1551.9966    13.273352    13.323447    13.348865    1.5413542    3907.0597    55.475493 
 2073000     273.7775   -931.22034            0   -926.47828   -963.01145    13.273352    13.323447    13.348865    1.5284525    3909.0374    53.494176 
 2074000    309.68149   -931.02662            0   -925.66267   -870.04888    13.273352    13.323447    13.348865     1.393667    3911.0107    51.512805 
 2075000     329.0458   -930.90139            0   -925.20204    -1743.805    13.273352    13.323447    13.348865    1.3820447    3912.9895    49.531513 
 2076000    282.45042   -931.40031            0   -926.50803   -2135.1731    13.273352    13.323447    13.348865    1.2447656    3914.9704    47.550247 
 2077000    312.47863   -931.21703            0   -925.80463    -1228.953    13.273352    13.323447    13.348865     1.441265    3916.9462    45.568924 
 2078000    324.06628   -931.16516            0   -925.55205   -1035.7865    13.273352    13.323447    13.348865    2.0286888    3918.9264    43.587655 
 2079000    293.98613    -931.1555            0   -926.06341   -981.54538    13.273352    13.323447    13.348865    1.1041708    3920.9068    41.606389 
 2080000    280.20753   -930.72673            0   -925.87329   -424.17298    13.273352    13.323447    13.348865    1.4924017    3922.8824    39.625074 
 2081000    348.44877   -931.36262            0   -925.32718   -898.35778    13.273352    13.323447    13.348865    1.2888321    3924.8653    37.643837 
 2082000    293.05263   -931.47852            0    -926.4026   -1750.5986    13.273352    13.323447    13.348865    1.1985475    3926.8406    35.662528 
 2083000     336.5248   -931.84588            0   -926.01698   -2061.3389    13.273352    13.323447    13.348865    1.1932091    3929.0033    33.682832 
 2084000    305.68597   -930.67371            0   -925.37896   -1689.5039    13.273352    13.323447    13.348865    1.3843435    3930.9829    31.701475 
 2085000    289.21388   -931.27668            0   -926.26725   -1656.6134    13.273352    13.323447    13.348865    1.2420272    3932.9863      29.7203 
 2086000    307.71648   -931.32715            0   -925.99723   -497.31327    13.273352    13.323447    13.348865    1.2684559     3934.965    27.738927 
 2087000    326.39436   -931.02453            0    -925.3711   -1158.4717    13.273352    13.323447    13.348865    1.5072617    3936.9445    25.757563 
 2088000     270.9431   -930.98502            0   -926.29205   -360.54574    13.273352    13.323447    13.348865    1.2704098    3938.9228    23.776194 
 2089000    328.36359   -931.64922            0   -925.96168   -926.74277    13.273352    13.323447    13.348865    1.3909252    3940.8992    21.794817 
 2090000    349.05589   -930.53421            0   -924.48826   -790.00329    13.273352    13.323447    13.348865    1.7557983    3942.8769    19.813452 
 2091000    295.58293    -930.8339            0   -925.71415   -1167.5535    13.273352    13.323447    13.348865    1.4212152    3944.8512    17.832075 
 2092000    318.53169   -931.81496            0   -926.29772   -2012.9669    13.273352    13.323447    13.348865    1.7038625    3946.8375    15.850753 
 2093000    333.56871   -931.31884            0   -925.54114   -2104.5386    13.273352    13.323447    13.348865     1.029581    3948.8186    13.869408 
 2094000    295.06016   -930.67341            0   -925.56272   -1320.9427    13.273352    13.323447    13.348865    1.6085013    3950.8106    11.888096 
 2095000    280.71186   -931.07639            0   -926.21421   -1881.1076    13.273352    13.323447    13.348865    1.3882416    3952.8082    9.9067874 
 2096000     332.6933   -931.40702            0   -925.64448   -2181.9065    13.273352    13.323447    13.348865    1.2930297    3954.7876    7.9254261 
 2097000    324.33716    -930.4936            0    -924.8758   -23.087078    13.273352    13.323447    13.348865    1.5384361    3956.7829    5.9440905 
 2098000    301.84078   -931.51666            0   -926.28852   -2377.9395    13.273352    13.323447    13.348865    1.2800937     3958.755    3.9627177 
 2099000     306.0168     -930.989            0   -925.68852   -709.48924    13.273352    13.323447    13.348865    1.6312048     3960.746    1.9813637 
 2100000    337.12686   -930.93543            0    -925.0961   -392.48226    13.273352    13.323447    13.348865    1.6920043    3962.7273            0 
Loop time of 3962.73 on 1 procs for 2000000 steps with 135 atoms

Performance: 43.606 ns/day, 0.550 hours/ns, 504.703 timesteps/s
99.9% CPU use with 1 MPI tasks x no OpenMP threads

MPI task timing breakdown:
Section |  min time  |  avg time  |  max time  |%varavg| %total
---------------------------------------------------------------
Pair    | 2764       | 2764       | 2764       |   0.0 | 69.75
Kspace  | 1151.1     | 1151.1     | 1151.1     |   0.0 | 29.05
Neigh   | 1.3585     | 1.3585     | 1.3585     |   0.0 |  0.03
Comm    | 32.877     | 32.877     | 32.877     |   0.0 |  0.83
Output  | 0.58162    | 0.58162    | 0.58162    |   0.0 |  0.01
Modify  | 6.1038     | 6.1038     | 6.1038     |   0.0 |  0.15
Other   |            | 6.768      |            |       |  0.17

Nlocal:        135.000 ave         135 max         135 min
Histogram: 1 0 0 0 0 0 0 0 0 0
Nghost:        4024.00 ave        4024 max        4024 min
Histogram: 1 0 0 0 0 0 0 0 0 0
Neighs:        44288.0 ave       44288 max       44288 min
Histogram: 1 0 0 0 0 0 0 0 0 0

Total # of neighbors = 44288
Ave neighs/atom = 328.05926
Neighbor list builds = 1204
Dangerous builds = 0

# Final Commands
variable final_energy equal etotal
print "final_energy: ${final_energy}"
final_energy: -925.096101843664
print "END_OF_COMP"
END_OF_COMP
Total wall time: 1:09:54
