LAMMPS (10 Feb 2021)
# Input written to comply with LAMMPS 2017-08-11 00:00:00

# Atomic Configuration
units           metal
boundary        p p p
box tilt large
atom_style      charge
read_data       na3ocl.lmp
Reading data file ...
  orthogonal box = (0.0000000 0.0000000 0.0000000) to (13.503000 13.503000 13.503000)
  1 by 1 by 1 MPI processor grid
  reading atoms ...
  129 atoms
  read_data CPU = 0.001 seconds

# Potential Setup
pair_style  buck/coul/long 12.0
pair_coeff * * 0.0 1.0 0.0
pair_coeff 1 1    1788.190000  0.159000   0.000000 # Na Na
pair_coeff 1 3    1170.410000  0.315000   0.000000 # Na Cl
pair_coeff 1 2     588.380000  0.338000   0.000000 # Na O
pair_coeff 3 3    1227.200000  0.321000  14.530000 # Cl Cl
pair_coeff 2 3    8286.910000  0.259000  62.200000 # Cl O
pair_coeff 2 2   22764.300000  0.149000  13.190000 # O  O
kspace_style pppm 1e-05

# General Setup
timestep        0.001

# Thermodynamic Information Output
thermo_style custom step temp epair emol etotal press lx ly lz fmax cpu cpuremain
thermo          1000

# Intial Atom Velocity
velocity all create 800 80800 dist gaussian rot yes

# Stage 0: npt_equilibriation
restart         0
fix             int all npt aniso 1.0 1.0 0.1 temp 800 800 0.5
run             50000
PPPM initialization ...
  using 12-bit tables for long-range coulomb (../kspace.cpp:339)
  G vector (1/distance) = 0.27805162
  grid = 15 15 15
  stencil order = 5
  estimated absolute RMS force accuracy = 6.1260485e-05
  estimated relative force accuracy = 4.2543052e-06
  using double precision KISS FFT
  3d grid and FFT values/proc = 10648 3375
Neighbor list info ...
  update every 1 steps, delay 10 steps, check yes
  max neighbors/atom: 2000, page size: 100000
  master list distance cutoff = 14
  ghost atom cutoff = 14
  binsize = 7, bins = 2 2 2
  1 neighbor lists, perpetual/occasional/extra = 1 0 0
  (1) pair buck/coul/long, perpetual
      attributes: half, newton on
      pair build: half/bin/atomonly/newton
      stencil: half/bin/3d/newton
      bin: standard
Per MPI rank memory allocation (min/avg/max) = 4.399 | 4.399 | 4.399 Mbytes
Step Temp E_pair E_mol TotEng Press Lx Ly Lz Fmax CPU CPULeft 
       0          800    -890.8039            0   -877.56766   -18966.951       13.503       13.503       13.503    4.5079397            0            0 
    1000    871.11696   -894.77883            0   -880.36594    1725.5054    13.551515    13.443535    13.199886    2.2798153    2.5663531     125.7513 
    2000    693.64596   -893.64509            0   -882.16851   -3837.1358    13.607922    13.472646    13.427356    1.9000446     5.154779    123.71469 
    3000     846.8594    -893.2718            0   -879.26026     5791.515    13.334127    13.472435     13.40546    2.3219926    7.6864049    120.42034 
    4000    789.88029   -892.68752            0   -879.61871    -3799.711    13.802113    13.296484    13.436978    2.9867204    10.251968    117.89763 
    5000    638.29654    -893.5728            0   -883.01199   -3286.8187    13.798687    13.344736    13.319393    2.3953803    12.777051    114.99347 
    6000    863.43885   -893.51427            0   -879.22841   -1656.7194    13.223636    13.340602    13.680572    1.7192717    15.359605     112.6371 
    7000    848.85918   -893.69335            0   -879.64872    4613.6469    13.464589    13.234442    13.430577    2.5914792    17.888596     109.8871 
    8000    794.60695   -894.79929            0   -881.65228   -3067.8515    13.484155    13.610789    13.292356    2.0347528    20.411743    107.16166 
    9000    877.44623   -893.49531            0    -878.9777   -386.63303    13.479265    13.395602    13.428568     2.862764    23.044343    104.97979 
   10000    758.12519   -892.78721            0    -880.2438   -4305.4069    13.740115    13.471787    13.290977    2.5142967     25.61431    102.45724 
   11000    770.67904   -894.70336            0   -881.95225    1689.3125    13.362734     13.40577    13.348264    2.2791861    28.133168    99.744872 
   12000    830.31942   -893.02509            0   -879.28721    4365.8649    13.391973    13.391428    13.443538    2.7847916    30.650608    97.060259 
   13000    797.72472   -893.36723            0   -880.16864   -5613.9656    13.492737    13.328892    13.693839    2.5784836    33.171311    94.410657 
   14000    814.24549   -894.99859            0   -881.52666    179.48615    13.285461    13.522814    13.456846    2.0979935     35.70104    91.802677 
   15000     804.0991   -893.41129            0   -880.10723   -2851.4893    13.306992    13.429517    13.601818    2.2124796    38.230252    89.203924 
   16000     945.6299   -893.39448            0   -877.74875   -1572.9319    13.608934    13.506611     13.34405    2.3001201    40.747912    86.589313 
   17000    848.09744   -894.20315            0   -880.17113    3734.0197    13.503324    13.317981    13.320563    2.5732014    43.268013    83.990851 
   18000    727.64279   -892.97646            0    -880.9374    -4325.194    13.747076    13.333451    13.377478    3.2175753    45.797147    81.417152 
   19000    790.87762   -893.62001            0   -880.53471   -1193.6053    13.481004     13.30463    13.572926    3.4037668    48.326964    78.849259 
   20000    935.36068   -893.84216            0   -878.36634   -3571.7396    13.568543    13.368878    13.581299    2.6370367    50.851333    76.277001 
   21000    818.43188   -894.66176            0   -881.12056   -4625.6302    13.706211    13.495591    13.299765    3.6702875    53.373035    73.705621 
   22000    818.48528   -893.51597            0   -879.97389   -1173.0452    13.488442    13.317469    13.669114     1.820034    55.890391    71.133226 
   23000     905.1217   -892.43235            0   -877.45684    -1720.174    13.672441     13.43634    13.348577    2.9590502    58.406486    68.564137 
   24000    743.64807   -893.47883            0   -881.17495    -2857.161    13.519748    13.302488    13.548203    2.4464435    60.950033    66.029202 
   25000    749.78116   -893.17409            0   -880.76874   -4278.4189    13.374586    13.524183    13.544622    1.9313893    63.472988    63.472989 
   26000    767.08193   -895.01967            0   -882.32807    982.66117    13.393746    13.464746    13.466385    2.4739505    65.996211    60.919579 
   27000    891.90354   -894.51882            0   -879.76201    3562.1669    13.288585     13.32139    13.546965     2.167138    68.525649    58.373701 
   28000    869.98435   -893.61614            0   -879.22199    5443.2663     13.58239    13.307727    13.197287    2.0372552    71.041739     55.81851 
   29000    764.77711   -893.95638            0   -881.30292   -5608.2252    13.349741    13.601101    13.485748    2.1599557    73.575649    53.278919 
   30000    708.32942   -891.89592            0    -880.1764    1767.3018    13.611739    13.367373    13.239195    2.0875576      76.1698    50.779867 
   31000    913.22179   -893.41694            0   -878.30741   -1278.8484    13.159006    13.518163    13.632671     2.048735    78.756168     48.26991 
   32000    824.06637    -895.5907            0   -881.95627    1360.9033    13.520485    13.348463    13.285447     2.143749    81.357323    45.763494 
   33000    855.63683   -894.17463            0   -880.01786   -2054.1924    13.497888     13.32441    13.510823    1.9788804    83.960681    43.252473 
   34000    854.20986   -892.82314            0   -878.68998     918.3251     13.42874      13.1041    13.803698    2.3980814    86.600851    40.753342 
   35000    734.13794   -894.31472            0   -882.16819    327.47673    13.661754    13.052162    13.618202    1.7521372    89.243892    38.247383 
   36000    934.72393   -894.15928            0   -878.69399   -14.600216    13.297348     13.53111    13.532626    2.1199369    91.787073    35.694973 
   37000    735.88016   -894.12941            0   -881.95405   -4130.6895    13.533306    13.278391    13.511244    1.8663071    94.303911    33.133807 
   38000    762.74197   -894.09574            0   -881.47595   -3888.4476    13.458143    13.425528    13.459366     2.348876    96.845773    30.582876 
   39000    859.04898   -893.30454            0   -879.09132   -5808.5675     13.59075    13.531111     13.42142    2.2022942     99.37641    28.029244 
   40000    706.13557   -894.32104            0   -882.63782    -1361.314    13.417476    13.568834    13.375773    3.0721977      101.913    25.478249 
   41000    730.07347   -892.92677            0   -880.84749   -350.80238    13.310068    13.471707    13.538129    2.8148186    104.44043    22.925949 
   42000    815.24571   -893.08939            0    -879.6009    -3716.307    13.717829    13.471879    13.284622    2.0348545    106.96769    20.374799 
   43000    714.47258   -894.64636            0    -882.8252   -5453.5201    13.429475    13.408764    13.605328    2.9058035    109.49787    17.825235 
   44000     797.8525   -894.49355            0   -881.29284   -1929.4638     13.31709    13.480347    13.526404    2.3951273    112.02834    15.276592 
   45000    805.58061   -893.18212            0   -879.85354    1561.4615    13.421333     13.41395    13.381681    4.1600422    114.55485    12.728317 
   46000    777.07382   -894.85748            0   -882.00056   -6921.8963    13.644131    13.458953    13.492476     2.560728    117.07663    10.180576 
   47000    711.26348   -892.99483            0   -881.22676   -1570.3933    13.417762    13.416205    13.427941    2.8294242    119.61283    7.6348616 
   48000    873.18934   -893.71565            0   -879.26847    2492.1043    13.334982    13.608716    13.358352    2.1225976    122.13199    5.0888329 
   49000    795.12641   -895.30855            0   -882.15295   -8851.2299    13.607454    13.541706    13.332688    2.3637508    124.64707    2.5438178 
   50000    772.16009   -894.07249            0   -881.29687   -7167.9258    13.440161    13.567181    13.463008    2.3947707    127.16789            0 
Loop time of 127.168 on 1 procs for 50000 steps with 129 atoms

Performance: 33.971 ns/day, 0.706 hours/ns, 393.181 timesteps/s
99.9% CPU use with 1 MPI tasks x no OpenMP threads

MPI task timing breakdown:
Section |  min time  |  avg time  |  max time  |%varavg| %total
---------------------------------------------------------------
Pair    | 63.02      | 63.02      | 63.02      |   0.0 | 49.56
Kspace  | 29.881     | 29.881     | 29.881     |   0.0 | 23.50
Neigh   | 1.0327     | 1.0327     | 1.0327     |   0.0 |  0.81
Comm    | 0.85872    | 0.85872    | 0.85872    |   0.0 |  0.68
Output  | 0.0012727  | 0.0012727  | 0.0012727  |   0.0 |  0.00
Modify  | 32.185     | 32.185     | 32.185     |   0.0 | 25.31
Other   |            | 0.1894     |            |       |  0.15

Nlocal:        129.000 ave         129 max         129 min
Histogram: 1 0 0 0 0 0 0 0 0 0
Nghost:        3820.00 ave        3820 max        3820 min
Histogram: 1 0 0 0 0 0 0 0 0 0
Neighs:        39325.0 ave       39325 max       39325 min
Histogram: 1 0 0 0 0 0 0 0 0 0

Total # of neighbors = 39325
Ave neighs/atom = 304.84496
Neighbor list builds = 1007
Dangerous builds = 0

# Stage 1: nvt_equilibriation
unfix int
restart         0
fix             int all nvt temp 800 800 0.5
run             50000
PPPM initialization ...
  using 12-bit tables for long-range coulomb (../kspace.cpp:339)
  G vector (1/distance) = 0.27809477
  grid = 15 15 15
  stencil order = 5
  estimated absolute RMS force accuracy = 6.1117994e-05
  estimated relative force accuracy = 4.2444098e-06
  using double precision KISS FFT
  3d grid and FFT values/proc = 10648 3375
Per MPI rank memory allocation (min/avg/max) = 4.399 | 4.399 | 4.399 Mbytes
Step Temp E_pair E_mol TotEng Press Lx Ly Lz Fmax CPU CPULeft 
   50000    772.16009    -894.0725            0   -881.29688   -7167.9884    13.440161    13.567181    13.463008    2.3947708            0            0 
   51000    840.97102   -892.42918            0   -878.51507   -545.98957    13.440161    13.567181    13.463008    2.6235957    1.8571332    90.999524 
   52000    771.60694   -891.50971            0   -878.74325   -1065.9327    13.440161    13.567181    13.463008     3.168964     3.716763    89.202312 
   53000    770.11621   -893.12588            0   -880.38408    -1084.104    13.440161    13.567181    13.463008    2.5847914    5.5696001    87.257068 
   54000    768.30675   -893.44132            0   -880.72946   -3851.3415    13.440161    13.567181    13.463008     2.418942    7.4215941    85.348333 
   55000    865.31602   -892.62675            0   -878.30984   -3127.3172    13.440161    13.567181    13.463008    2.4864352     9.280005    83.520045 
   56000    787.92058   -893.96487            0   -880.92849   -2282.4273    13.440161    13.567181    13.463008    1.8964219    11.134055    81.649745 
   57000    811.67905   -894.35768            0   -880.92821    -3255.058    13.440161    13.567181    13.463008     1.489668    12.987473    79.780199 
   58000    762.74936   -892.05969            0   -879.43977   -2240.8157    13.440161    13.567181    13.463008    2.4596692     14.83588     77.88837 
   59000    917.00473   -894.96324            0   -879.79112   -4270.7333    13.440161    13.567181    13.463008    2.5276185    16.686218    76.014998 
   60000    732.76283   -893.39724            0   -881.27346   -2504.4361    13.440161    13.567181    13.463008     2.412301    18.541781    74.167129 
   61000    763.34619    -894.3228            0   -881.69301   -4301.6856    13.440161    13.567181    13.463008    2.4810025    20.396483    72.314807 
   62000    877.04017    -893.5911            0   -879.08021    -2601.536    13.440161    13.567181    13.463008    1.8946644    22.251194    70.462118 
   63000    724.73846    -893.4798            0   -881.48879   -3335.2825    13.440161    13.567181    13.463008    1.8873254    24.102921    68.600625 
   64000    743.90694   -893.77321            0   -881.46505   -4721.9307    13.440161    13.567181    13.463008    1.9582671    25.954447    66.740009 
   65000    870.19664   -893.07592            0   -878.67826   -1778.6194    13.440161    13.567181    13.463008     2.033624    27.809155    64.888031 
   66000    800.32063   -894.68456            0   -881.44301   -5015.4091    13.440161    13.567181    13.463008    2.0153695     29.66187    63.031474 
   67000    804.37836   -892.84364            0   -879.53496   -4546.3291    13.440161    13.567181    13.463008    1.8980204    31.520362    61.186585 
   68000    806.92152   -892.42996            0    -879.0792   -2009.7768    13.440161    13.567181    13.463008    2.2861384    33.376609    59.336196 
   69000    819.94441   -894.85894            0   -881.29271   -6151.3154    13.440161    13.567181    13.463008    2.3290129    35.227766    57.476883 
   70000     974.6657   -893.86668            0   -877.74055   -3871.6925    13.440161    13.567181    13.463008     1.716114    37.083428    55.625144 
   71000    872.85431   -893.73782            0   -879.29619   -3459.8556    13.440161    13.567181    13.463008    1.6880362    38.937993    53.771516 
   72000    794.86046   -893.84475            0   -880.69354   -5478.1415    13.440161    13.567181    13.463008    2.0172026    40.794742    51.920582 
   73000    807.32429   -890.98991            0   -877.63249    -3360.477    13.440161    13.567181    13.463008    2.7296635    42.646635    50.063442 
   74000    855.80882   -892.99977            0   -878.84016   -1157.2226    13.440161    13.567181    13.463008    2.1881044    44.544144    48.256156 
   75000    773.69841   -893.10317            0   -880.30209   -4243.2309    13.440161    13.567181    13.463008    2.3681866     46.39986    46.399861 
   76000    877.90687   -893.98355            0   -879.45832   -5973.7392    13.440161    13.567181    13.463008    3.7091242    48.259998    44.547691 
   77000    882.99756   -892.95601            0   -878.34655   -3292.1536    13.440161    13.567181    13.463008    2.4463019    50.124497    42.698647 
   78000    719.77822   -892.96501            0   -881.05606   -6543.4654    13.440161    13.567181    13.463008    2.7848182    51.990253    40.849485 
   79000    846.64032   -893.40535            0   -879.39743   -1243.5826    13.440161    13.567181    13.463008    1.9811203    53.854145     38.99783 
   80000    959.48874   -891.45669            0   -875.58167    556.32579    13.440161    13.567181    13.463008     2.123621    55.720781    37.147188 
   81000    802.60376   -892.96785            0   -879.68853   -1836.6879    13.440161    13.567181    13.463008    2.8045349    57.578238    35.289889 
   82000     748.9328   -893.84765            0   -881.45633   -3365.7997    13.440161    13.567181    13.463008    2.3538413    59.430018    33.429386 
   83000    779.96778   -891.71136            0   -878.80656   -1447.2582    13.440161    13.567181    13.463008    2.3830266    61.290486    31.573887 
   84000     850.6697   -893.65228            0   -879.57769    -2899.861    13.440161    13.567181    13.463008    2.5326249     63.14824    29.716819 
   85000    777.17333   -893.34843            0   -880.48987   -4900.7286    13.440161    13.567181    13.463008    3.1288534    65.008316    27.860707 
   86000    856.82824    -894.3718            0   -880.19532   -3961.3171    13.440161    13.567181    13.463008    2.1188641    66.864618    26.002907 
   87000    907.64057   -893.47357            0   -878.45639   -1967.0063    13.440161    13.567181    13.463008    1.9994686    68.718599    24.144373 
   88000    762.55132   -894.17032            0   -881.55368   -2641.3619    13.440161    13.567181    13.463008    1.9185236     70.58209    22.289081 
   89000    863.86924   -894.86302            0   -880.57005   -3951.9009    13.440161    13.567181    13.463008    2.6487376    72.453356    20.435562 
   90000    853.45924   -893.48622            0   -879.36548   -5797.0252    13.440161    13.567181    13.463008    2.1253025    74.307799     18.57695 
   91000    784.68451   -893.08578            0   -880.10294   -1224.8254    13.440161    13.567181    13.463008    2.5107826    76.181543    16.722778 
   92000    813.78043   -894.37893            0   -880.91469      -204.31    13.440161    13.567181    13.463008    2.2775297    78.047327    14.866158 
   93000    846.82565   -893.27813            0   -879.26715   -1192.2195    13.440161    13.567181    13.463008    2.1910725    79.912844    13.009068 
   94000    780.95791   -892.13932            0   -879.21813   -3254.1316    13.440161    13.567181    13.463008    2.5820854    81.776604    11.151355 
   95000    749.99312   -893.99665            0   -881.58779   -3085.1763    13.440161    13.567181    13.463008    2.0280094    83.633437    9.2926042 
   96000    824.33888   -892.63395            0   -878.99502   -1721.8239    13.440161    13.567181    13.463008    2.3812191    85.492318    7.4341147 
   97000    803.63581   -893.63981            0   -880.34342   -3978.0106    13.440161    13.567181    13.463008    2.0503512    87.349528    5.5755019 
   98000     712.5822   -896.64385            0   -884.85397   -7029.7478    13.440161    13.567181    13.463008    2.1292925    89.204157    3.7168399 
   99000    793.48752   -893.99225            0   -880.86377   -4964.6203    13.440161    13.567181    13.463008    2.3393977    91.061809    1.8584043 
  100000    879.11885   -893.53161            0   -878.98633    -2353.653    13.440161    13.567181    13.463008    1.9980227    92.918652            0 
Loop time of 92.9187 on 1 procs for 50000 steps with 129 atoms

Performance: 46.492 ns/day, 0.516 hours/ns, 538.105 timesteps/s
99.9% CPU use with 1 MPI tasks x no OpenMP threads

MPI task timing breakdown:
Section |  min time  |  avg time  |  max time  |%varavg| %total
---------------------------------------------------------------
Pair    | 62.035     | 62.035     | 62.035     |   0.0 | 66.76
Kspace  | 29.036     | 29.036     | 29.036     |   0.0 | 31.25
Neigh   | 0.72547    | 0.72547    | 0.72547    |   0.0 |  0.78
Comm    | 0.8155     | 0.8155     | 0.8155     |   0.0 |  0.88
Output  | 0.00097704 | 0.00097704 | 0.00097704 |   0.0 |  0.00
Modify  | 0.147      | 0.147      | 0.147      |   0.0 |  0.16
Other   |            | 0.159      |            |       |  0.17

Nlocal:        129.000 ave         129 max         129 min
Histogram: 1 0 0 0 0 0 0 0 0 0
Nghost:        3811.00 ave        3811 max        3811 min
Histogram: 1 0 0 0 0 0 0 0 0 0
Neighs:        38914.0 ave       38914 max       38914 min
Histogram: 1 0 0 0 0 0 0 0 0 0

Total # of neighbors = 38914
Ave neighs/atom = 301.65891
Neighbor list builds = 713
Dangerous builds = 0

# Stage 2: main_nvt_simulation
unfix int
dump     atom_info all custom 1000 main_nvt_simulation-trajectory.lammpstrj element x y z q id type vx vy vz
dump_modify     atom_info append yes
dump_modify     atom_info sort id
dump_modify     atom_info element Na O Cl
restart         0
fix             int all nvt temp 800 800 0.5
run             2000000
PPPM initialization ...
  using 12-bit tables for long-range coulomb (../kspace.cpp:339)
  G vector (1/distance) = 0.27809477
  grid = 15 15 15
  stencil order = 5
  estimated absolute RMS force accuracy = 6.1117994e-05
  estimated relative force accuracy = 4.2444098e-06
  using double precision KISS FFT
  3d grid and FFT values/proc = 10648 3375
Per MPI rank memory allocation (min/avg/max) = 5.670 | 5.670 | 5.670 Mbytes
Step Temp E_pair E_mol TotEng Press Lx Ly Lz Fmax CPU CPULeft 
  100000    879.11885   -893.53161            0   -878.98633    -2353.653    13.440161    13.567181    13.463008    1.9980227            0            0 
  101000    798.81947   -895.09423            0   -881.87752   -4635.2814    13.440161    13.567181    13.463008    2.1635107    1.8972509    3792.6045 
  102000    767.53518    -894.2385            0    -881.5394   -4890.4525    13.440161    13.567181    13.463008    2.1989346    3.7334599    3729.7265 
  103000    803.48006   -893.02224            0   -879.72842   -3307.1354    13.440161    13.567181    13.463008    2.4194494    5.5730619    3709.8022 
  104000    715.71222   -890.92021            0   -879.07853   -2742.7894    13.440161    13.567181    13.463008    3.1287406    7.4137409    3699.4573 
  105000    700.86067   -893.67468            0   -882.07873    -4568.154    13.440161    13.567181    13.463008    2.4011224    9.2517841    3691.4619 
  106000    934.72548   -894.64204            0   -879.17672   -2387.3465    13.440161    13.567181    13.463008    1.7973027    11.089982    3685.5707 
  107000    792.52772   -892.78098            0   -879.66838   -2954.3105    13.440161    13.567181    13.463008    2.4241793     12.93282    3682.1586 
  108000    760.29542   -893.50437            0   -880.92505   -3342.4754    13.440161    13.567181    13.463008    2.6667115    14.778908    3679.9481 
  109000    783.77226   -894.22145            0    -881.2537   -5219.6833    13.440161    13.567181    13.463008    2.4112196    16.664809    3686.6263 
  110000    805.97888   -892.31816            0     -878.983    -1474.195    13.440161    13.567181    13.463008    2.3059826    18.529091    3687.2901 
  111000    753.51487   -893.06857            0   -880.60144   -3164.6317    13.440161    13.567181    13.463008    1.9741557    20.368279    3682.9553 
  112000    710.12602     -893.338            0   -881.58875   -6205.9978    13.440161    13.567181    13.463008    2.6713168    22.224111    3681.7946 
  113000    748.21395   -892.19894            0   -879.81952   -4895.1341    13.440161    13.567181    13.463008    2.6610124    24.057598    3677.1115 
  114000    792.89221   -893.24205            0   -880.12341   -6000.3117    13.440161    13.567181    13.463008    2.4690454    25.942285    3680.0986 
  115000    795.20965   -895.48775            0   -882.33077   -4513.2128    13.440161    13.567181    13.463008    1.9109411    27.788499    3677.3448 
  116000    792.49185   -894.60663            0   -881.49461   -2448.8465    13.440161    13.567181    13.463008    2.1394442     29.62517    3673.5212 
  117000    823.97711   -893.31852            0   -879.68557   -4110.9744    13.440161    13.567181    13.463008    2.3806097    31.460437    3669.7676 
  118000    698.10991   -893.31137            0   -881.76093   -4295.7073    13.440161    13.567181    13.463008    2.0635879    33.345481    3671.7081 
  119000    752.86409   -893.97157            0   -881.51521    -3115.286    13.440161    13.567181    13.463008    2.0481632     35.17873    3667.8456 
  120000    835.01487   -893.64538            0   -879.82981   -4015.8257    13.440161    13.567181    13.463008    2.1126483    37.012143    3664.2022 
  121000    758.19806   -894.16597            0   -881.62136    -4938.065    13.440161    13.567181    13.463008    1.8488527    38.844746     3660.655 
  122000    741.84146   -894.20823            0   -881.93424   -3952.1448    13.440161    13.567181    13.463008    1.8228066    40.745347    3663.3772 
  123000    749.62215   -891.33554            0   -878.93282   -3315.0304    13.440161    13.567181    13.463008    2.3205091    42.579689     3660.002 
  124000    703.99216   -893.17366            0    -881.5259   -8272.3925    13.440161    13.567181    13.463008    2.4565755    44.434815    3658.4665 
  125000    843.18203   -894.61685            0   -880.66615   -1913.3358    13.440161    13.567181    13.463008     2.325565    46.271295    3655.4324 
  126000    851.30323   -893.36526            0   -879.28019   -3170.6723    13.440161    13.567181    13.463008    3.0483095    48.108741    3652.5637 
  127000    710.98279   -893.26788            0   -881.50446    -7237.328    13.440161    13.567181    13.463008    1.9948827    49.950976    3650.1214 
  128000    873.56353   -893.13054            0   -878.67717   -1190.1711    13.440161    13.567181    13.463008    2.5375714     51.80779    3648.7487 
  129000    825.37016   -893.18081            0   -879.52482     -5362.01    13.440161    13.567181    13.463008    1.8119888    53.648289    3646.2337 
  130000    796.05466   -893.68063            0   -880.50966   -5283.6698    13.440161    13.567181    13.463008    2.2971569    55.521338    3645.9013 
  131000    866.27923   -894.55418            0   -880.22133   -3136.2159    13.440161    13.567181    13.463008    2.2065397    57.357184    3643.1063 
  132000    900.15335   -893.78845            0   -878.89514   -4875.9642    13.440161    13.567181    13.463008    1.8827827    59.194222    3640.4447 
  133000    657.94298   -892.33318            0   -881.44732    -7150.119    13.440161    13.567181    13.463008    2.5342472    61.032616    3637.9138 
  134000    799.40929   -893.50142            0   -880.27496   -1964.6147    13.440161    13.567181    13.463008    2.2832062    62.915041    3637.9698 
  135000    839.40756   -892.80094            0   -878.91269   -1986.1913    13.440161    13.567181    13.463008    3.1023111      64.7505    3635.2781 
  136000    781.02773   -894.12377            0   -881.20143   -6345.1593    13.440161    13.567181    13.463008    2.2335839    66.583774    3632.5148 
  137000    862.83744    -892.2589            0     -877.983   -1362.1082    13.440161    13.567181    13.463008    2.2999622    68.417194    3629.8095 
  138000    823.81299   -893.00746            0   -879.37723   -7508.5516    13.440161    13.567181    13.463008    2.8998368    70.251751    3627.2089 
  139000    759.66929   -893.42181            0   -880.85285   -6854.6927    13.440161    13.567181    13.463008    1.7587262    72.089774    3624.8217 
  140000    840.06965   -892.17416            0   -878.27496    399.83283    13.440161    13.567181    13.463008    2.7992246    73.924956    3622.3229 
  141000    823.48065   -892.95662            0   -879.33188   -4744.4923    13.440161    13.567181    13.463008    2.5763572    75.762744    3619.9809 
  142000    762.95119   -893.39942            0   -880.77617   -5605.0502    13.440161    13.567181    13.463008    1.8952939    77.600171    3617.6461 
  143000    824.44968   -893.64779            0   -880.00702   -1572.3468    13.440161    13.567181    13.463008    3.3371464    79.474706    3617.0233 
  144000    888.38541   -892.64834            0   -877.94974    -3932.346    13.440161    13.567181    13.463008    2.1616032    81.309214    3614.5642 
  145000    791.47347   -894.05244            0   -880.95728   -1266.4284    13.440161    13.567181    13.463008     1.959479     83.14806    3612.3213 
  146000    796.43448   -892.84694            0   -879.66969    -3703.571    13.440161    13.567181    13.463008    2.7478213    84.986502    3610.0788 
  147000    868.85455   -891.74714            0   -877.37168   -3580.3019    13.440161    13.567181    13.463008     2.055578    86.928164    3612.1427 
  148000    799.62894   -893.86987            0   -880.63977   -4112.8021    13.440161    13.567181    13.463008    1.8592619    88.764735    3609.7659 
  149000    856.77166   -894.63526            0   -880.45972   -4233.0212    13.440161    13.567181    13.463008    1.9401752    90.603832    3607.5118 
  150000    855.36875   -891.71967            0   -877.56734   -3924.7464    13.440161    13.567181    13.463008    2.0322503    92.444383     3605.331 
  151000    799.92965   -894.40671            0   -881.17164    -8179.427    13.440161    13.567181    13.463008    2.5274087    94.358561    3605.9772 
  152000    927.88439   -895.19492            0   -879.84279   -5867.6605    13.440161    13.567181    13.463008    2.0753154    96.198682    3603.7507 
  153000    815.35269    -893.4719            0   -879.98165   -5491.8552    13.440161    13.567181    13.463008    1.7740025    98.051151    3601.9923 
  154000    757.06658   -894.82096            0   -882.29506   -3607.5605    13.440161    13.567181    13.463008    2.2060035     99.88448    3599.5407 
  155000    856.74306   -893.74499            0   -879.56992   -3350.5972    13.440161    13.567181    13.463008    2.0861205    101.71966    3597.1771 
  156000    815.50612   -894.07514            0   -880.58235   -3114.9952    13.440161    13.567181    13.463008    2.1305029    103.55663    3594.8944 
  157000    778.86896   -895.74198            0   -882.85536   -6691.2709    13.440161    13.567181    13.463008    2.7810377    105.47304    3595.3354 
  158000    790.58082   -893.81714            0   -880.73675   -4455.0937    13.440161    13.567181    13.463008    3.4288498    107.30966    3593.0235 
  159000    782.28864   -892.70756            0   -879.76437   -6165.8812    13.440161    13.567181    13.463008    2.4245739    109.17506    3591.6743 
  160000     801.2686   -896.01175            0   -882.75452   -6244.0764    13.440161    13.567181    13.463008    1.9524043    111.01296    3589.4192 
  161000    854.62458   -893.70683            0   -879.56681   -2310.2755    13.440161    13.567181    13.463008    2.6556837    112.85214     3587.218 
  162000    745.58635   -892.62986            0   -880.29391   -2099.0288    13.440161    13.567181    13.463008    2.3736915    114.70984    3585.6075 
  163000    792.71785   -895.16067            0   -882.04492   -5165.0711    13.440161    13.567181    13.463008    2.4859534    116.54465    3583.2854 
  164000    854.72758   -892.55841            0   -878.41668   -2317.7368    13.440161    13.567181    13.463008    2.5589596    118.43152    3582.5535 
  165000    883.61036   -895.43407            0   -880.81447   -4508.7196    13.440161    13.567181    13.463008    2.3725898     120.3238    3581.9471 
  166000    788.66865   -894.03288            0   -880.98412   -4198.8285    13.440161    13.567181    13.463008    2.0297584    122.15558    3579.5287 
  167000    811.18949   -894.08494            0   -880.66357   -2772.2503    13.440161    13.567181    13.463008    1.9220854    123.98795    3577.1449 
  168000    827.53592   -893.91728            0   -880.22546   -3248.3367    13.440161    13.567181    13.463008    1.8174274    125.88189    3576.5265 
  169000    859.37701   -892.39128            0   -878.17263    5464.4313    13.440161    13.567181    13.463008    2.9796446    127.72083    3574.3323 
  170000    775.73222   -894.24487            0   -881.41015   -4286.0159    13.440161    13.567181    13.463008    2.3339535    129.55283    3571.9565 
  171000    743.75468   -892.54495            0   -880.23931   -3877.8538    13.440161    13.567181    13.463008     2.530065    131.38358    3569.5623 
  172000    902.98119   -891.77829            0   -876.83819     303.6327    13.440161    13.567181    13.463008    2.2510235    133.33897    3570.5214 
  173000    768.86748   -894.26352            0   -881.54238   -4780.5965    13.440161    13.567181    13.463008    2.3471326    135.18879    3568.6136 
  174000    827.67082   -894.16137            0   -880.46731   -5795.0905    13.440161    13.567181    13.463008    1.9606781    137.02383     3566.323 
  175000    827.82931    -892.8255            0   -879.12882   -1749.2078    13.440161    13.567181    13.463008    2.7789051    138.85828    3564.0291 
  176000     747.4805   -894.70061            0   -882.33333   -6726.2819    13.440161    13.567181    13.463008    1.9997719    140.73045    3562.7026 
  177000    707.71526   -891.78402            0   -880.07466    -2424.179    13.440161    13.567181    13.463008    2.2683892    142.56218    3560.3517 
  178000    796.28389   -893.41378            0   -880.23902   -4995.0979    13.440161    13.567181    13.463008    2.1114314    144.47947    3560.1224 
  179000    734.79296   -892.72043            0   -880.56306   -1929.2671    13.440161    13.567181    13.463008    2.2426336    146.31158    3557.7791 
  180000    805.41485   -893.55881            0   -880.23298   -6336.4497    13.440161    13.567181    13.463008    2.2094781    148.14567     3555.496 
  181000    923.84635   -894.13087            0   -878.84556   -452.18577    13.440161    13.567181    13.463008    2.7370386    149.98683    3553.3916 
  182000    687.00102   -893.20581            0   -881.83918   -5182.1699    13.440161    13.567181    13.463008    1.8558028    151.89381    3552.8334 
  183000    852.47478   -894.03909            0   -879.93464   -2968.9366    13.440161    13.567181    13.463008     2.163355    153.72568    3550.5075 
  184000    865.13897   -893.21167            0   -878.89769   -610.01896    13.440161    13.567181    13.463008    2.3002911    155.56127    3548.2786 
  185000    737.87202   -893.68596            0   -881.47764    -7222.271    13.440161    13.567181    13.463008    2.0442305    157.44636    3547.1738 
  186000    762.60798   -891.95712            0   -879.33954   -451.69363    13.440161    13.567181    13.463008     2.367517    159.29046     3545.139 
  187000    887.25835    -893.9213            0   -879.24135    -3675.679    13.440161    13.567181    13.463008    2.1640008    161.12633    3542.9273 
  188000    848.31839    -894.8931            0   -880.85742   -6204.8247    13.440161    13.567181    13.463008    1.7785027    162.96335    3540.7493 
  189000    793.90617   -892.60294            0   -879.46752    -3672.164    13.440161    13.567181    13.463008    2.9090142    164.82652    3539.1403 
  190000    917.17451   -893.34121            0   -878.16629   -2614.7092    13.440161    13.567181    13.463008    2.1497922     166.6598    3536.8913 
  191000     880.7212   -895.08315            0   -880.51135   -4860.4378    13.440161    13.567181    13.463008    2.1333804    168.59366    3536.7615 
  192000    829.93854   -894.39123            0   -880.65965   -4425.4871    13.440161    13.567181    13.463008    2.1349105    170.43031    3534.5764 
  193000    920.40355   -894.54033            0   -879.31198    -3503.054    13.440161    13.567181    13.463008    2.5866428     172.2688    3532.4366 
  194000     716.1808   -893.31403            0   -881.46461   -3073.0567    13.440161    13.567181    13.463008    3.6742491    174.10753     3530.308 
  195000    783.05597   -894.29637            0   -881.34048   -5926.6168    13.440161    13.567181    13.463008    2.2572454    175.94813     3528.223 
  196000    788.93006   -892.58391            0   -879.53083   -2890.0764    13.440161    13.567181    13.463008    2.4118118    177.78707    3526.1101 
  197000    757.68553   -893.84825            0   -881.31212   -3813.8097    13.440161    13.567181    13.463008    2.0517365    179.66002    3524.6703 
  198000    725.12394    -893.6472            0   -881.64981   -4621.9855    13.440161    13.567181    13.463008    2.2540971    181.49483    3522.4813 
  199000    782.41362   -891.79288            0   -878.84761   -3480.6693    13.440161    13.567181    13.463008       2.4251    183.33519    3520.4061 
  200000    759.30058    -894.3117            0   -881.74885   -5110.0776    13.440161    13.567181    13.463008    2.9656775    185.17473    3518.3199 
  201000    804.76872   -894.50131            0   -881.18617   -3444.1013    13.440161    13.567181    13.463008    2.0408345    187.02707    3516.4792 
  202000    795.78769   -893.33117            0   -880.16462    -3877.281    13.440161    13.567181    13.463008    2.0940787    188.86518    3514.3736 
  203000    831.78543    -893.0454            0   -879.28326   -4368.9704    13.440161    13.567181    13.463008    2.8982444    190.70498    3512.3043 
  204000    719.85777   -894.13868            0   -882.22842   -4902.5109    13.440161    13.567181    13.463008     2.519543    192.54908    3510.3179 
  205000    806.46037   -892.67664            0   -879.33351   -4498.8561    13.440161    13.567181    13.463008    1.9230853    194.38773    3508.2358 
  206000    827.92775   -893.51535            0   -879.81704   -4605.1246    13.440161    13.567181    13.463008    2.2226459    196.23291    3506.2749 
  207000    712.35881   -893.50753            0   -881.72134   -1675.7024    13.440161    13.567181    13.463008    2.3115112    198.11174    3504.9114 
  208000    823.48759   -892.56565            0    -878.9408   -1872.8957    13.440161    13.567181    13.463008    2.1630038    199.94676     3502.771 
  209000    768.56645    -893.0174            0   -880.30124   -1687.5487    13.440161    13.567181    13.463008    2.5221606    201.78482     3500.689 
  210000    798.93346     -894.639            0   -881.42041   -3830.4152    13.440161    13.567181    13.463008     2.482277    203.65826    3499.2192 
  211000    806.17099   -892.84609            0   -879.50775   -2948.3534    13.440161    13.567181    13.463008    2.4187798     205.4929    3497.0819 
  212000    1008.1122   -893.01771            0   -876.33819   -4459.2669    13.440161    13.567181    13.463008    2.0926546    207.37473    3495.7455 
  213000    721.56857   -892.48984            0   -880.55127    -4933.481    13.440161    13.567181    13.463008    2.2179648    209.21887    3493.7701 
  214000    754.24881   -894.12209            0   -881.64282   -5083.5471    13.440161    13.567181    13.463008     2.633692    211.05757    3491.7069 
  215000    799.61441   -891.57284            0   -878.34298   -1041.9846    13.440161    13.567181    13.463008    2.5688077    212.89587    3489.6411 
  216000    786.12749   -893.46535            0   -880.45864   -2921.0839    13.440161    13.567181    13.463008    2.4465505    214.73463    3487.5865 
  217000     811.5961   -894.15839            0   -880.73029    -3274.584    13.440161    13.567181    13.463008    2.3531699    216.57069    3485.4924 
  218000    807.37342   -892.06176            0   -878.70353   -3816.1261    13.440161    13.567181    13.463008    2.8903496    218.40983    3483.4518 
  219000    783.12096   -892.52244            0   -879.56547   -1772.9283    13.440161    13.567181    13.463008    2.4512277    220.24708    3481.3845 
  220000    813.44291   -894.74582            0   -881.28717   -5304.2986    13.440161    13.567181    13.463008    2.3404854    222.07874    3479.2337 
  221000    890.67341   -893.21625            0   -878.47979   -5356.7368    13.440161    13.567181    13.463008    2.6394328    223.91221     3477.116 
  222000    778.10249   -893.65173            0   -880.77779   -3749.6889    13.440161    13.567181    13.463008    1.9031278    225.86582    3476.8526 
  223000    784.53247   -894.05443            0    -881.0741   -1669.4147    13.440161    13.567181    13.463008    2.4129594     227.7038     3474.797 
  224000    822.51769   -892.38023            0   -878.77143   -3727.7945    13.440161    13.567181    13.463008    2.1709971    229.53754    3472.6809 
  225000    755.81273   -894.73749            0   -882.23234   -4364.7448    13.440161    13.567181    13.463008    1.7114648    231.36909    3470.5364 
  226000    825.37433    -894.1999            0   -880.54384   -4414.5774    13.440161    13.567181    13.463008    1.9601764    233.23083    3468.8459 
  227000    848.98389   -893.66766            0   -879.62097   -5265.4547    13.440161    13.567181    13.463008    3.3328164    235.06569    3466.7562 
  228000    835.88487   -894.19972            0   -880.36976   -5494.3856    13.440161    13.567181    13.463008    2.6270663    236.91759    3464.9197 
  229000    769.34064   -893.92346            0   -881.19449   -5039.1205    13.440161    13.567181    13.463008    2.9296767    238.77241    3463.1255 
  230000    751.43011   -894.50331            0   -882.07067    -2898.215    13.440161    13.567181    13.463008    3.3791964    240.67383    3462.0006 
  231000    864.86187    -893.4859            0   -879.17651   -4427.1106    13.440161    13.567181    13.463008    2.4052324    242.53591    3460.3025 
  232000    749.97834   -893.65339            0   -881.24478   -6633.9934    13.440161    13.567181    13.463008    1.7366981     244.3721    3458.2354 
  233000     667.1649   -896.03253            0   -884.99409   -7511.5152    13.440161    13.567181    13.463008    1.9961789    246.20244    3456.0898 
  234000    739.18778   -894.31662            0   -882.08653   -4478.9577    13.440161    13.567181    13.463008    2.8642879    248.03782    3454.0192 
  235000    845.45095    -893.3799            0   -879.39166   -4031.0251    13.440161    13.567181    13.463008    2.9004787    249.90327    3452.3674 
  236000     774.6552    -894.0065            0    -881.1896   -6108.0569    13.440161    13.567181    13.463008    2.9357506    251.74254    3450.3536 
  237000    754.98111    -894.4103            0   -881.91892   -3688.4256    13.440161    13.567181    13.463008    2.1640109    253.64696    3449.2284 
  238000    800.90367   -893.53994            0   -880.28875   -3952.4105    13.440161    13.567181    13.463008    1.9559526    255.48406    3447.1835 
  239000    737.71889   -893.09828            0    -880.8925   -1202.9522    13.440161    13.567181    13.463008    1.9461368    257.31917    3445.1149 
  240000    670.60343   -894.33395            0   -883.23862   -8873.8026    13.440161    13.567181    13.463008    2.2601059    259.15099     3443.006 
  241000    932.31845   -895.40991            0   -879.98443   -4113.2085    13.440161    13.567181    13.463008    2.6553194    261.04585    3441.7321 
  242000    838.03678   -894.47841            0   -880.61284   -5325.5084    13.440161    13.567181    13.463008     1.785159    262.88484    3439.7185 
  243000    768.09711   -896.01381            0   -883.30541   -7741.5857    13.440161    13.567181    13.463008     1.927392    264.78124    3438.4529 
  244000    845.27346   -893.51236            0   -879.52706    -4539.675    13.440161    13.567181    13.463008    2.2316679    266.62063    3436.4436 
  245000    773.94954   -893.70608            0   -880.90085   -2917.0123    13.440161    13.567181    13.463008    2.4557582    268.45983    3434.4344 
  246000    740.55372   -894.41832            0   -882.16564   -3951.5885    13.440161    13.567181    13.463008    2.1247355    270.29729    3432.4053 
  247000    829.39355   -892.39654            0   -878.67397   -4958.0751    13.440161    13.567181    13.463008    3.1298427    272.22621    3431.5318 
  248000    813.02979    -894.6658            0   -881.21398   -6914.4556    13.440161    13.567181    13.463008    2.6480427    274.06383    3429.5015 
  249000    727.97963    -892.4475            0   -880.40286   -853.76884    13.440161    13.567181    13.463008    2.4495783    275.93793     3427.927 
  250000    891.28254   -893.46865            0   -878.72212   -2771.5867    13.440161    13.567181    13.463008    2.5015282    277.77375    3425.8762 
  251000    752.03909   -893.83685            0   -881.39414   -7509.1834    13.440161    13.567181    13.463008    2.3939942    279.61008    3423.8347 
  252000    833.82448   -892.83749            0   -879.04162    -3091.618    13.440161    13.567181    13.463008    2.4487668    281.44584    3421.7889 
  253000    794.61459   -892.27832            0   -879.13118   -3174.6415    13.440161    13.567181    13.463008    2.1062476    283.29991    3419.9669 
  254000    820.86374     -894.237            0   -880.65557   -7488.7423    13.440161    13.567181    13.463008    2.5803811    285.14505    3418.0375 
  255000    702.09024   -892.17188            0   -880.55559   -3681.0424    13.440161    13.567181    13.463008    2.6313567    287.02876    3416.5682 
  256000    817.39316      -892.03            0   -878.50599   -2469.1283    13.440161    13.567181    13.463008    3.4390459    288.85974    3414.4703 
  257000    743.97743   -893.96046            0   -881.65113   -6116.5708    13.440161    13.567181    13.463008    2.2143825    290.69912    3412.4743 
  258000    788.40903   -893.81741            0   -880.77295   -4647.3617    13.440161    13.567181    13.463008    1.9393778    292.58482    3411.0206 
  259000    768.92788   -892.64575            0    -879.9236   -3463.8201    13.440161    13.567181    13.463008    2.2686326    294.41776    3408.9503 
  260000      781.907   -893.31969            0   -880.38281   -5004.1023    13.440161    13.567181    13.463008    2.7815369    296.32329    3407.7178 
  261000    730.89846   -893.55385            0   -881.46092   -3998.2134    13.440161    13.567181    13.463008     2.009306    298.20276    3406.1794 
  262000    779.00656    -892.6528            0    -879.7639   -1513.9345    13.440161    13.567181    13.463008    2.6508069    300.03546     3404.106 
  263000    814.94742   -893.09361            0   -879.61006    423.48773    13.440161    13.567181    13.463008     2.773743    301.86746    3402.0278 
  264000    817.09774   -895.39608            0   -881.87696   -7223.9795    13.440161    13.567181    13.463008    2.0536771    303.79388    3401.0096 
  265000    776.17422   -892.67916            0   -879.83712   -4293.0031    13.440161    13.567181    13.463008    2.5329474    305.63101    3398.9873 
  266000    853.45578   -894.60549            0   -880.48481   -5070.9209    13.440161    13.567181    13.463008     2.673986    307.46638    3396.9478 
  267000    751.17415   -894.59555            0   -882.16714   -6646.7312    13.440161    13.567181    13.463008    1.8744804    309.30045    3394.8965 
  268000    849.71811   -893.25695            0   -879.19811   -3030.0929    13.440161    13.567181    13.463008    2.0487031    311.23027     3393.892 
  269000    773.49966   -893.19915            0   -880.40137   -4882.9746    13.440161    13.567181    13.463008    2.3703652    313.06347    3391.8297 
  270000    674.95802   -894.59774            0   -883.43036   -6169.9166    13.440161    13.567181    13.463008    2.0800153    314.90779    3389.8898 
  271000    784.97804   -893.91418            0   -880.92648   -3038.8073    13.440161    13.567181    13.463008    2.7306316    316.74603    3387.8859 
  272000    855.27123   -893.23171            0   -879.08099   -2922.2201    13.440161    13.567181    13.463008    2.1424011    318.58495    3385.8912 
  273000    786.09141   -894.56071            0    -881.5546   -1566.4304    13.440161    13.567181    13.463008    2.8459022    320.44957    3384.1698 
  274000    753.82131   -893.31139            0   -880.83919   -5083.6428    13.440161    13.567181    13.463008    2.0855611    322.30459    3382.3459 
  275000    789.02698   -892.44154            0   -879.38685   -3841.7439    13.440161    13.567181    13.463008    1.8276522     324.1489    3380.4099 
  276000    832.42746   -894.81054            0   -881.03778   -5661.1465    13.440161    13.567181    13.463008    2.2826149    325.99086    3378.4508 
  277000    686.83873    -895.0453            0   -883.68135    -5994.669    13.440161    13.567181    13.463008    2.2642229    327.84073    3376.5743 
  278000     771.4991   -893.01338            0    -880.2487   -4208.6734    13.440161    13.567181    13.463008    2.0576466    329.67398    3374.5281 
  279000     925.2267   -894.75343            0   -879.44528   -4313.1919    13.440161    13.567181    13.463008    2.5102194    331.53529    3372.7696 
  280000    794.06915   -895.42135            0   -882.28324   -4916.2302    13.440161    13.567181    13.463008    2.5792896    333.36871    3370.7281 
  281000    789.06679   -893.42981            0   -880.37446   -3335.6224    13.440161    13.567181    13.463008    1.8881464    335.21598     3368.828 
  282000    845.73876   -893.82778            0   -879.83478   -1726.0459    13.440161    13.567181    13.463008    2.4163528    337.04953    3366.7914 
  283000    791.48189   -894.80029            0   -881.70498   -5602.5358    13.440161    13.567181    13.463008    2.6791037    338.89638    3364.8893 
  284000    761.66387   -892.68534            0   -880.08339   -5237.7223    13.440161    13.567181    13.463008      1.94443      340.729    3362.8471 
  285000    793.41892   -892.25803            0   -879.13068   -3637.1778    13.440161    13.567181    13.463008    2.8109874    342.57527    3360.9412 
  286000    764.03161   -894.64409            0   -882.00296   -5259.1792    13.440161    13.567181    13.463008    3.4188631    344.40852    3358.9089 
  287000    804.55797   -893.82098            0   -880.50933   -6232.0321    13.440161    13.567181    13.463008    2.1044189    346.24417     3356.902 
  288000    871.42372   -893.40782            0   -878.98985   -4185.2081    13.440161    13.567181    13.463008    1.9855527    348.08489    3354.9459 
  289000    850.94781   -894.13103            0   -880.05184    -4009.885    13.440161    13.567181    13.463008    2.0886628    349.93883    3353.1176 
  290000    730.24904   -894.00903            0   -881.92684   -7381.3248    13.440161    13.567181    13.463008    1.6734539    351.76984    3351.0706 
  291000    894.47815   -893.49598            0   -878.69657   -950.84611    13.440161    13.567181    13.463008    2.2916822    353.62533    3349.2577 
  292000    742.19526   -892.09918            0   -879.81933   -2631.1823    13.440161    13.567181    13.463008    2.0494213    355.46017      3347.25 
  293000    851.74043   -894.89474            0   -880.80244   -5242.7348    13.440161    13.567181    13.463008     2.051896    357.31702      3345.45 
  294000    771.40384   -894.48344            0   -881.72033   -3917.1617    13.440161    13.567181    13.463008    2.0837472    359.15146    3343.4409 
  295000     783.3339    -893.0346            0   -880.07411   -3426.6081    13.440161    13.567181    13.463008    1.8491959    360.99766    3341.5425 
  296000    845.37362   -893.39994            0   -879.41299   -5753.7673    13.440161    13.567181    13.463008    2.0024673    362.83878    3339.5977 
  297000    766.56984    -894.9875            0   -882.30437   -3460.7108    13.440161    13.567181    13.463008    1.8479162    364.67248    3337.5862 
  298000    914.86586   -894.93136            0   -879.79463   -4304.3448    13.440161    13.567181    13.463008    2.1678249    366.50433    3335.5596 
  299000    779.43444   -893.18024            0   -880.28427   -7486.9145    13.440161    13.567181    13.463008    1.9941144    368.35629     3333.717 
  300000     844.9968    -894.9846            0   -881.00388   -3881.3151    13.440161    13.567181    13.463008    2.2672582    370.18945     3331.705 
  301000    927.59484   -893.69958            0   -878.35225   -1695.1706    13.440161    13.567181    13.463008    2.6153456    372.03907    3329.8422 
  302000    840.33846   -893.90915            0    -880.0055   -3128.0068    13.440161    13.567181    13.463008    1.6619617    373.87123    3327.8241 
  303000    790.32924    -894.3521            0   -881.27587   -4876.8667    13.440161    13.567181    13.463008    2.0542932    375.70994    3325.8658 
  304000     956.6637   -893.67185            0   -877.84356   -1601.2025    13.440161    13.567181    13.463008    2.5992937      377.544    3323.8678 
  305000    835.78722   -892.90831            0   -879.07996   -2516.4605    13.440161    13.567181    13.463008    2.3020287    379.37952    3321.8841 
  306000    838.66998   -894.73228            0   -880.85624   -5620.6156    13.440161    13.567181    13.463008    2.4612846    381.21098    3319.8665 
  307000    755.17809    -894.3198            0   -881.82515   -6013.9529    13.440161    13.567181    13.463008    2.8246103     383.0446    3317.8694 
  308000    755.10317   -892.08673            0   -879.59332   -2199.1074    13.440161    13.567181    13.463008    3.4639696    384.87834    3315.8749 
  309000    785.39049    -892.9613            0   -879.96678   -673.21809    13.440161    13.567181    13.463008    2.5182558    386.71052    3313.8686 
  310000    741.67065   -894.21581            0   -881.94465   -6900.1254    13.440161    13.567181    13.463008    1.9041289    388.56016    3312.0128 
  311000    821.89138   -893.54076            0   -879.94232   -4865.4638    13.440161    13.567181    13.463008    2.4513498    390.39657    3310.0449 
  312000    785.23931   -893.50961            0    -880.5176   -3788.8021    13.440161    13.567181    13.463008    2.3338172    392.24517     3308.181 
  313000     721.9243     -895.289            0   -883.34455   -6699.8909    13.440161    13.567181    13.463008    2.1780218    394.07783    3306.1835 
  314000    771.22436   -892.72921            0   -879.96908   -880.04259    13.440161    13.567181    13.463008    2.8962148    395.92882    3304.3405 
  315000    841.73094   -894.04705            0   -880.12036   -4606.7384    13.440161    13.567181    13.463008    2.1171708    397.76838    3302.4026 
  316000    697.09252   -894.24543            0   -882.71182     -3282.12    13.440161    13.567181    13.463008    1.8774491    399.61573    3300.5299 
  317000    778.20358    -892.8105            0   -879.93489   -2810.6265    13.440161    13.567181    13.463008    2.2703205    401.44696     3298.525 
  318000    674.41562   -891.59688            0   -880.43847   -3239.5305    13.440161    13.567181    13.463008    2.9200607    403.29438    3296.6541 
  319000    735.26103   -894.42586            0   -882.26074   -4875.2729    13.440161    13.567181    13.463008    2.2137839    405.13248    3294.7076 
  320000    788.67662    -892.9877            0   -879.93881    249.93175    13.440161    13.567181    13.463008    2.5001621    406.97935    3292.8329 
  321000    820.64781   -893.29332            0   -879.71545   -4186.5944    13.440161    13.567181    13.463008    2.0291378    408.81714    3290.8855 
  322000    715.95127   -894.56744            0   -882.72182   -5659.5815    13.440161    13.567181    13.463008    2.9106741    410.66974    3289.0576 
  323000    887.92881   -893.43928            0   -878.74823   -3769.8389    13.440161    13.567181    13.463008    2.1298662     412.4997    3287.0491 
  324000    746.42354   -893.05006            0   -880.70026   -3077.2481    13.440161    13.567181    13.463008    2.1351702    414.35653    3285.2553 
  325000    714.06376   -893.33641            0   -881.52202   -7163.4051    13.440161    13.567181    13.463008    2.2447181    416.18799    3283.2608 
  326000    881.23747   -892.66695            0   -878.08661   -3216.4982    13.440161    13.567181    13.463008    2.3747229    418.03829    3281.4156 
  327000    823.21486   -894.21055            0   -880.59021   -7593.0947    13.440161    13.567181    13.463008    2.2210382    419.87499    3279.4641 
  328000    827.54012   -894.40263            0   -880.71073   -7381.1671    13.440161    13.567181    13.463008    1.8972473    421.72705     3277.633 
  329000    949.58806   -892.28232            0   -876.57111   -1163.3941    13.440161    13.567181    13.463008    2.7247556    423.56178    3275.6678 
  330000    844.71997   -894.00189            0   -880.02574   -6268.2865    13.440161    13.567181    13.463008    2.2661779    425.40998    3273.8072 
  331000    752.86123    -893.7024            0   -881.24609   -4008.0965    13.440161    13.567181    13.463008    2.7091949    427.24921    3271.8782 
  332000     877.9082   -893.09117            0   -878.56592    -2921.573    13.440161    13.567181    13.463008    2.4147079    429.08521    3269.9252 
  333000    784.24477   -892.91097            0   -879.93541   -3018.5257    13.440161    13.567181    13.463008      3.32912    430.92024    3267.9659 
  334000    716.93614   -892.85169            0   -880.98977   -7196.2712    13.440161    13.567181    13.463008    2.0797344    432.76697     3266.096 
  335000    756.52447   -891.52698            0   -879.01006   -931.91539    13.440161    13.567181    13.463008    4.1073485    434.60081    3264.1295 
  336000    932.70383   -892.98612            0   -877.55426   -2000.0548    13.440161    13.567181    13.463008    2.2532092    436.44598    3262.2488 
  337000    833.61756   -895.10355            0    -881.3111   -5197.7451    13.440161    13.567181    13.463008    2.6081245     438.2835    3260.3114 
  338000    721.31885   -891.80251            0   -879.86807   -5321.4678    13.440161    13.567181    13.463008    2.3997174    440.19135    3258.8956 
  339000     846.3631   -892.64241            0   -878.63908   -1859.5912    13.440161    13.567181    13.463008    2.2703502    442.03388    3256.9944 
  340000    815.00713   -894.98454            0       -881.5   -5625.3347    13.440161    13.567181    13.463008    1.8741058    443.87233    3255.0638 
  341000    766.58381   -891.91888            0   -879.23552    -3925.217    13.440161    13.567181    13.463008    1.7718343    445.74208    3253.3624 
  342000    758.28091   -893.59888            0   -881.05289   -3726.5666    13.440161    13.567181    13.463008    2.3882134    447.58857    3251.4905 
  343000    708.47852   -893.19813            0   -881.47615   -6124.5127    13.440161    13.567181    13.463008    2.4743329    449.42351    3249.5354 
  344000    746.34764   -891.95856            0   -879.61001    106.04421    13.440161    13.567181    13.463008    2.4244823    451.25928    3247.5873 
  345000    725.84553   -892.67779            0   -880.66846   -3917.4127    13.440161    13.567181    13.463008     2.412384    453.15739    3246.0866 
  346000    758.62113   -893.46314            0   -880.91152   -3424.5176    13.440161    13.567181    13.463008    2.3790023     455.0223     3244.346 
  347000    810.97054   -892.17241            0   -878.75466    262.75914    13.440161    13.567181    13.463008    2.4254034    456.92635    3242.8822 
  348000    766.40127   -893.81488            0   -881.13455   -3431.7469    13.440161    13.567181    13.463008    2.0092681     458.7632      3240.94 
  349000    755.38999   -893.53416            0     -881.036   -4102.1217    13.440161    13.567181    13.463008    2.7312429    460.59707    3238.9778 
  350000    777.90556   -892.86218            0    -879.9915   -2317.5418    13.440161    13.567181    13.463008    3.0489308    462.43116    3237.0181 
  351000    778.24224   -893.22299            0   -880.34674   -4325.1738    13.440161    13.567181    13.463008    1.9142318    464.31204    3235.3855 
  352000    771.12189   -894.59019            0   -881.83174   -5790.8472    13.440161    13.567181    13.463008    2.4899658    466.19657    3233.7762 
  353000    877.95312   -893.76123            0   -879.23523    -4589.875    13.440161    13.567181    13.463008    2.2678058    468.12061    3232.4376 
  354000    820.93388   -893.22242            0   -879.63982   -4699.9229    13.440161    13.567181    13.463008     2.201593       469.96    3230.5124 
  355000    728.46299   -894.39107            0   -882.33843   -7554.3843    13.440161    13.567181    13.463008     2.403954    471.79237    3228.5399 
  356000      740.316   -895.39104            0    -883.1423   -6176.0204    13.440161    13.567181    13.463008    1.9271554    473.62373    3226.5617 
  357000     825.1039   -893.46576            0   -879.81417   -3960.7604    13.440161    13.567181    13.463008    2.4380915    475.48355    3224.7775 
  358000    864.05993   -893.44131            0   -879.14518   -6861.8756    13.440161    13.567181    13.463008      1.95354    477.32385    3222.8611 
  359000     756.0183   -894.75505            0    -882.2465   -8394.0332    13.440161    13.567181    13.463008    2.9151521    479.20106    3221.1932 
  360000    807.66107   -893.35853            0   -879.99554   -3126.2335    13.440161    13.567181    13.463008    2.7112787    481.04655    3219.3115 
  361000    760.90509   -892.64326            0   -880.05385    -2527.025    13.440161    13.567181    13.463008    1.8721758    482.88829    3217.4052 
  362000    772.91094   -894.50326            0   -881.71522   -5219.9423    13.440161    13.567181    13.463008    2.4578324    484.73156    3215.5093 
  363000    809.95901   -894.78083            0   -881.37981   -5112.2446    13.440161    13.567181    13.463008    2.8256105    486.61382    3213.8715 
  364000    836.26712   -893.07341            0   -879.23712   -2785.4933    13.440161    13.567181    13.463008    2.4728053    488.45268    3211.9464 
  365000      762.211   -894.49851            0    -881.8875   -6733.0492    13.440161    13.567181    13.463008    2.3478609    490.29131    3210.0205 
  366000    708.00917   -895.65307            0   -883.93885   -6362.6602    13.440161    13.567181    13.463008    1.8751164    492.13734    3208.1434 
  367000    828.89454   -893.68115            0   -879.96684   -3199.6625    13.440161    13.567181    13.463008    1.8793387    493.98633    3206.2858 
  368000    847.83998   -893.40331            0   -879.37555   -4685.8426    13.440161    13.567181    13.463008    1.9549995    495.84726    3204.5054 
  369000    719.61357   -894.27305            0   -882.36683   -4085.0885    13.440161    13.567181    13.463008    2.3517422    497.68816    3202.5956 
  370000    847.90929   -893.98609            0   -879.95718   -3575.4192    13.440161    13.567181    13.463008    2.4056149    499.52395    3200.6534 
  371000    832.17981    -893.9098            0   -880.14114   -2522.9463    13.440161    13.567181    13.463008    2.2314315    501.35378    3198.6741 
  372000     801.1399   -894.84704            0   -881.59194   -7445.8719    13.440161    13.567181    13.463008    1.6099561    503.21003    3196.8637 
  373000    754.81158   -892.66755            0   -880.17896   -6859.8931    13.440161    13.567181    13.463008    1.7770346    505.04867    3194.9416 
  374000    747.42428   -891.40117            0   -879.03481   -1537.4663    13.440161    13.567181    13.463008    2.4019616    506.89255    3193.0531 
  375000     727.9394   -893.99047            0    -881.9465   -5173.7712    13.440161    13.567181    13.463008    1.8799853    508.73214     3191.138 
  376000    823.78164   -894.01664            0   -880.38693   -6172.6936    13.440161    13.567181    13.463008    2.0050054    510.56949    3189.2095 
  377000    855.51897   -893.09207            0   -878.93725   -1193.2422    13.440161    13.567181    13.463008    2.7115581    512.42775    3187.4116 
  378000    796.81286   -895.34118            0   -882.15767   -6949.3729    13.440161    13.567181    13.463008    1.9334633    514.26649    3185.4924 
  379000    797.31181   -893.21656            0   -880.02479   -1837.7682    13.440161    13.567181    13.463008    2.3066633    516.11288     3183.621 
  380000      931.133   -894.88775            0   -879.48187   -3219.4672    13.440161    13.567181    13.463008     2.301553    517.97498    3181.8463 
  381000    751.18545   -893.08309            0    -880.6545   -2555.6019    13.440161    13.567181    13.463008    2.3786751    519.83057    3180.0312 
  382000    770.23161   -893.34688            0   -880.60316   -6355.0526    13.440161    13.567181    13.463008     2.289694    521.68272    3178.1947 
  383000    813.46659   -893.78571            0   -880.32666   -4122.8691    13.440161    13.567181    13.463008     2.634604     523.5708    3176.5762 
  384000    790.93972   -893.67899            0   -880.59266   -2489.7644    13.440161    13.567181    13.463008    2.4664826    525.47344    3175.0437 
  385000    772.24355   -892.92865            0   -880.15165   -3837.5969    13.440161    13.567181    13.463008    2.1004439    527.32533    3173.2033 
  386000    848.49143   -893.34334            0    -879.3048   -1402.7676    13.440161    13.567181    13.463008    2.1398909    529.17502    3171.3496 
  387000    747.64032    -894.6181            0   -882.24817   -4806.0835    13.440161    13.567181    13.463008    2.8617858    531.02652    3169.5067 
  388000    843.79046   -893.31991            0   -879.35914   -5023.3372    13.440161    13.567181    13.463008    2.6899466    532.86754    3167.6015 
  389000    780.00126   -892.74032            0   -879.83496   -3639.4877    13.440161    13.567181    13.463008    2.4778992    534.70624     3165.683 
  390000    702.60303   -893.05143            0   -881.42665   -5324.2716    13.440161    13.567181    13.463008    2.4687812    536.53802    3163.7242 
  391000    892.19683    -892.6401            0   -877.87843   -5053.5113    13.440161    13.567181    13.463008    1.9924547    538.37039    3161.7698 
  392000    779.11146    -893.4508            0   -880.56017   -6610.4373    13.440161    13.567181    13.463008    2.3930533    540.20272    3159.8159 
  393000    760.47686   -893.36837            0   -880.78605   -3162.4856    13.440161    13.567181    13.463008    2.2198983    542.03986    3157.8909 
  394000    803.55142   -892.81489            0   -879.51989   -3319.8621    13.440161    13.567181    13.463008    2.9023146    543.87817    3155.9733 
  395000    902.03652   -893.11448            0   -878.19002   -6708.9439    13.440161    13.567181    13.463008    1.9713899    545.71772    3154.0634 
  396000    802.44274   -894.33435            0    -881.0577   -4113.7266    13.440161    13.567181    13.463008     2.038008    547.56227    3152.1828 
  397000    857.74529   -893.46833            0   -879.27668   -5155.9295    13.440161    13.567181    13.463008     2.181974    549.43869    3150.4851 
  398000    846.07423   -892.75427            0   -878.75572   -4131.8086    13.440161    13.567181    13.463008    2.4510522    551.27244    3148.5426 
  399000    809.38609   -894.06428            0   -880.67274   -4320.4771    13.440161    13.567181    13.463008    2.2252892    553.10666    3146.6034 
  400000    870.39381   -893.91935            0   -879.51843   -1335.7297    13.440161    13.567181    13.463008    2.3519185    554.94111    3144.6663 
  401000     785.2701   -892.91614            0   -879.92361   -4097.9798    13.440161    13.567181    13.463008    3.0881013    556.83931    3143.0897 
  402000    677.88117   -893.29003            0   -882.07428   -4035.3355    13.440161    13.567181    13.463008    3.2033682    558.67524    3141.1608 
  403000    823.86541    -892.6208            0    -878.9897   -5514.9907    13.440161    13.567181    13.463008    2.4246369    560.50754    3139.2122 
  404000    764.12456   -892.93138            0   -880.28871   -5739.1862    13.440161    13.567181    13.463008    2.8913672    562.34653    3137.3017 
  405000    726.88625   -894.13166            0   -882.10511   -5351.5941    13.440161    13.567181    13.463008    2.3349547    564.20594    3135.5051 
  406000    756.85736   -893.98651            0   -881.46408   -5789.9935    13.440161    13.567181    13.463008    1.7070905    566.03796    3133.5566 
  407000    854.31424   -893.33194            0   -879.19706   -1556.2459    13.440161    13.567181    13.463008    2.6751845    567.87467    3131.6346 
  408000    677.68155   -893.53281            0   -882.32037   -7081.4864    13.440161    13.567181    13.463008    2.0051875    569.70948    3129.7027 
  409000    788.17854   -894.64708            0   -881.60643   -3816.8922    13.440161    13.567181    13.463008    1.8604253    571.54684    3127.7855 
  410000    845.04192   -893.90235            0   -879.92088   -3601.1911    13.440161    13.567181    13.463008    1.9042291    573.38834    3125.8913 
  411000    846.22338   -893.14204            0   -879.14102   -5606.3513    13.440161    13.567181    13.463008    2.0645733    575.23649    3124.0335 
  412000    721.35401   -893.99153            0   -882.05651   -7504.3837    13.440161    13.567181    13.463008    1.9986623    577.08785    3122.1932 
  413000    855.35887   -893.18461            0   -879.03244   -5088.9936    13.440161    13.567181    13.463008    2.3667293    578.92841    3120.2947 
  414000    759.27308   -892.41548            0   -879.85308   -1337.6703    13.440161    13.567181    13.463008    2.3221411    580.76825    3118.3926 
  415000    737.46109   -893.77616            0   -881.57464   -4757.0316    13.440161    13.567181    13.463008    2.3396823    582.60642    3116.4819 
  416000    871.28336   -893.53759            0   -879.12195    1231.0621    13.440161    13.567181    13.463008    2.9505688     584.4427    3114.5617 
  417000    823.40654   -893.43435            0   -879.81085   -4898.2621    13.440161    13.567181    13.463008    2.9018268     586.2795    3112.6448 
  418000    763.82705   -894.15212            0   -881.51438   -4336.4533    13.440161    13.567181    13.463008     4.371761     588.1154    3110.7236 
  419000    770.77986   -892.98272            0   -880.22994   -2631.6202    13.440161    13.567181    13.463008    2.5607279    589.94947    3108.7933 
  420000    826.09746   -893.88849            0   -880.22046   -3788.9215    13.440161    13.567181    13.463008    2.5536906    591.78194    3106.8552 
  421000    764.91696   -894.92282            0   -882.26704   -6041.6716    13.440161    13.567181    13.463008    2.5399655    593.62106    3104.9525 
  422000    818.10608   -894.05467            0   -880.51886   -3537.8785    13.440161    13.567181    13.463008    2.6569858    595.45669    3103.0321 
  423000    826.40787   -893.39377            0   -879.72061   -967.28479    13.440161    13.567181    13.463008    2.2999762    597.29169    3101.1089 
  424000    732.76636   -894.66269            0   -882.53886     -5792.43    13.440161    13.567181    13.463008    2.5344735    599.12393    3099.1719 
  425000    811.12281   -895.15359            0   -881.73332   -3884.2652    13.440161    13.567181    13.463008    2.5800843    600.95598    3097.2346 
  426000    817.33521   -892.74195            0    -879.2189   -3043.8755    13.440161    13.567181    13.463008    2.8905673    602.80993    3095.4105 
  427000    814.13087   -894.51346            0   -881.04342   -4182.1697    13.440161    13.567181    13.463008    2.5836941    604.64396    3093.4842 
  428000    837.63104   -895.07299            0   -881.21414   -6958.9914    13.440161    13.567181    13.463008    2.5334076    606.47724    3091.5547 
  429000    828.61273   -892.49423            0   -878.78458   -2040.9201    13.440161    13.567181    13.463008     2.231041    608.31294    3089.6381 
  430000     843.9503    -895.3186            0   -881.35519   -7830.9705    13.440161    13.567181    13.463008    2.2811383    610.18564    3087.9092 
  431000     910.3702   -893.42885            0   -878.36651   -3691.8738    13.440161    13.567181    13.463008    1.8579636    612.01948    3085.9834 
  432000    821.79054   -892.30793            0   -878.71116   -536.71273    13.440161    13.567181    13.463008    2.1529371    613.86949    3084.1395 
  433000     733.1288   -893.06731            0   -880.93747    -1867.498    13.440161    13.567181    13.463008    1.8591942    615.70358    3082.2158 
  434000    832.94651   -892.07202            0   -878.29068   -628.78237    13.440161    13.567181    13.463008    2.2762284     617.5352    3080.2804 
  435000    758.44979     -891.734            0   -879.18523   -506.25439    13.440161    13.567181    13.463008    2.1654733    619.36857    3078.3543 
  436000    845.61557   -894.48012            0   -880.48916   -4458.8687    13.440161    13.567181    13.463008    2.0139786    621.31888    3077.0078 
  437000    807.69211   -892.96683            0   -879.60333   -2391.2284    13.440161    13.567181    13.463008     2.019868    623.16594    3075.1482 
  438000    793.21491    -890.9983            0   -877.87433   -215.20571    13.440161    13.567181    13.463008    2.8519654    625.00391    3073.2441 
  439000    758.77775   -893.71929            0   -881.16508   -6580.0583    13.440161    13.567181    13.463008    2.4367881    626.86718    3071.4643 
  440000     859.5696   -893.74729            0   -879.52546   -5703.6231    13.440161    13.567181    13.463008     2.473557     628.7303    3069.6832 
  441000    909.38531    -890.6634            0   -875.61735   -1434.9283    13.440161    13.567181    13.463008    3.0337782    630.59549    3067.9118 
  442000    803.96996   -892.67018            0   -879.36826    345.60142    13.440161    13.567181    13.463008    2.2547064    632.43114    3065.9966 
  443000    744.02423   -893.44597            0   -881.13587   -4998.8343    13.440161    13.567181    13.463008    2.4016152    634.26047    3064.0513 
  444000    829.76442   -892.98553            0   -879.25683   -5983.2576    13.440161    13.567181    13.463008    1.9916584    636.09244    3062.1194 
  445000    784.00085   -891.87934            0   -878.90781   -2638.0084    13.440161    13.567181    13.463008    2.3989565    637.96174    3060.3672 
  446000    735.73067   -893.55893            0   -881.38605   -4289.2855    13.440161    13.567181    13.463008    2.2482193    639.79571    3058.4454 
  447000    822.88405   -892.51809            0   -878.90323   -4027.3855    13.440161    13.567181    13.463008    2.7215058    641.69262    3056.8239 
  448000    801.51851   -894.10649            0   -880.84513   -4338.0864    13.440161    13.567181    13.463008    1.8365725    643.52438    3054.8916 
  449000     773.6814   -894.01703            0   -881.21624   -4882.0793    13.440161    13.567181    13.463008    3.2462644    645.35644    3052.9613 
  450000    789.23937   -892.50444            0   -879.44624   -888.12846    13.440161    13.567181    13.463008    2.3381019    647.18855    3051.0317 
  451000    837.26349   -893.98295            0   -880.13017   -2284.6337    13.440161    13.567181    13.463008    2.3872438    649.07978    3049.3805 
  452000    741.62026   -892.74041            0   -880.47009   -438.46353    13.440161    13.567181    13.463008    3.0948336    650.91144     3047.449 
  453000    806.89503   -893.43984            0   -880.08952   -3768.2239    13.440161    13.567181    13.463008    2.2710038    652.75084    3045.5542 
  454000    851.28133    -892.8635            0    -878.7788   -2980.0715    13.440161    13.567181    13.463008     2.731477    654.60231    3043.7158 
  455000    878.69185   -893.30593            0   -878.76771   -2995.5426    13.440161    13.567181    13.463008    2.8599879     656.4833    3042.0142 
  456000    739.64715   -893.42169            0     -881.184   -2887.8172    13.440161    13.567181    13.463008    2.1718311    658.31353    3040.0771 
  457000     850.5336   -892.07733            0   -878.00499   -488.96876    13.440161    13.567181    13.463008    3.1833512    660.21045    3038.4475 
  458000    768.40786   -893.01161            0   -880.29808   -1133.8163    13.440161    13.567181    13.463008    2.2271585    662.04269    3036.5198 
  459000    845.38565   -894.37659            0   -880.38944   -2227.8959    13.440161    13.567181    13.463008    2.1275833    663.99552    3035.1439 
  460000    849.54286   -892.56637            0   -878.51043   -2985.2929    13.440161    13.567181    13.463008    2.4632431    665.82758    3033.2145 
  461000    775.70112   -894.41941            0    -881.5852   -2065.0393    13.440161    13.567181    13.463008     2.154112    667.66107    3031.2922 
  462000    856.17027   -894.85123            0   -880.68563   -2976.6537    13.440161    13.567181    13.463008     1.561093    669.49689     3029.381 
  463000    720.16941    -891.7733            0   -879.85789   -5654.2551    13.440161    13.567181    13.463008    2.4304104     671.3286    3027.4516 
  464000    780.12347    -893.0425            0   -880.13513   -2220.3061    13.440161    13.567181    13.463008    3.1578781    673.20865      3025.74 
  465000    668.48465   -893.72422            0   -882.66394   -6005.3303    13.440161    13.567181    13.463008    2.0685571    675.10484    3024.0998 
  466000    857.05138   -893.69179            0   -879.51162   -252.19826    13.440161    13.567181    13.463008    2.4254402    676.94343     3022.201 
  467000    767.50324   -892.97069            0   -880.27212   -4263.2996    13.440161    13.567181    13.463008    2.2259703    678.77871    3020.2878 
  468000    709.91133   -894.91265            0   -883.16695   -7083.3968    13.440161    13.567181    13.463008    2.1326705    680.69575    3018.7377 
  469000    775.10422    -892.4252            0   -879.60087   -4503.2444    13.440161    13.567181    13.463008    2.3594968    682.53139    3016.8257 
  470000    802.16678   -892.78259            0    -879.5105   -2873.6188    13.440161    13.567181    13.463008    2.5610332    684.36719    3014.9149 
  471000    703.42303   -893.61654            0    -881.9782    -5932.839    13.440161    13.567181    13.463008    1.9002206    686.19697    3012.9781 
  472000    881.77222   -892.83262            0   -878.24343   -1812.0036    13.440161    13.567181    13.463008    2.2081665    688.07436    3011.2502 
  473000    793.52239    -893.7281            0   -880.59904   -4645.6884    13.440161    13.567181    13.463008    3.0292382    689.91052    3009.3416 
  474000    832.92779   -894.49051            0   -880.70947   -5621.5439    13.440161    13.567181    13.463008    2.1434043    691.74374    3007.4207 
  475000    835.73757   -891.67439            0   -877.84686   -1200.4945    13.440161    13.567181    13.463008     2.025292    693.58227    3005.5232 
  476000    769.66122    -893.4386            0   -880.70433   -2270.7013    13.440161    13.567181    13.463008    2.1397529    695.46977    3003.8375 
  477000    806.21095   -893.31105            0   -879.97205   -3162.1219    13.440161    13.567181    13.463008    3.6660826    697.30591    3001.9297 
  478000    958.15892   -892.19723            0   -876.34421   -2990.2476    13.440161    13.567181    13.463008    2.3328772    699.23457    3000.4192 
  479000    842.45053   -893.48106            0   -879.54247   -1215.7535    13.440161    13.567181    13.463008    2.3560191    701.06756    2998.4974 
  480000    728.39449   -893.14026            0   -881.08875   -4455.3374    13.440161    13.567181    13.463008    2.5348449    702.89909    2996.5698 
  481000    895.16988    -893.0232            0   -878.21235   -3633.4119    13.440161    13.567181    13.463008    2.0760224    704.73249    2994.6507 
[...]
 1980000    754.78492   -892.55469            0   -880.06655   -3965.7138    13.440161    13.567181    13.463008    2.1252632    3475.7538    221.85663 
 1981000    797.60574   -891.85966            0   -878.66303   -1447.3696    13.440161    13.567181    13.463008    3.1380569    3477.6334    220.00977 
 1982000    759.27736   -894.17938            0   -881.61691   -7233.5776    13.440161    13.567181    13.463008    2.4379185    3479.4688    218.16011 
 1983000    825.67351   -893.61968            0   -879.95866   -5659.0799    13.440161    13.567181    13.463008    2.3032084    3481.3066     216.3106 
 1984000    855.13447   -893.08726            0    -878.9388   -886.84981    13.440161    13.567181    13.463008    2.2278938    3483.1623    214.46222 
 1985000    778.65501   -893.90898            0    -881.0259   -5766.9617    13.440161    13.567181    13.463008    2.1176966    3485.0297    212.61454 
 1986000    790.07399   -892.91152            0   -879.83951   -2456.9944    13.440161    13.567181    13.463008    2.0805435    3486.8702    210.76522 
 1987000    852.75182   -892.72268            0   -878.61365   -1322.7908    13.440161    13.567181    13.463008    1.8819346     3488.717    208.91628 
 1988000    699.19809    -892.6425            0   -881.07406   -6070.0309    13.440161    13.567181    13.463008    1.9610292    3490.5874    207.06874 
 1989000    870.97823   -894.29551            0   -879.88491   -5147.7804    13.440161    13.567181    13.463008    2.3199168    3492.4245    205.21923 
 1990000    902.51589   -892.88316            0   -877.95077   -4409.7625    13.440161    13.567181    13.463008     2.509098    3494.2821    203.37092 
 1991000    820.41725   -894.32045            0    -880.7464   -4215.0661    13.440161    13.567181    13.463008    1.6488686    3496.1321    201.52216 
 1992000    746.26299   -893.11801            0   -880.77087   -866.15003    13.440161    13.567181    13.463008    2.1371016    3497.9992    199.67437 
 1993000    800.18784   -892.10956            0   -878.87022   -2572.7791    13.440161    13.567181    13.463008    2.1182396    3499.8412    197.82515 
 1994000    783.43938   -894.47059            0   -881.50835   -3503.6944    13.440161    13.567181    13.463008    2.8551304    3501.6928    195.97647 
 1995000    841.51406   -894.99329            0   -881.07019   -6884.1438    13.440161    13.567181    13.463008    1.8770483    3503.5629    194.12881 
 1996000    795.81825   -892.66324            0   -879.49619   -3004.7402    13.440161    13.567181    13.463008     2.083223    3505.4277    192.28084 
 1997000    802.27877   -893.58227            0   -880.30833   -4143.1621    13.440161    13.567181    13.463008    3.3508665    3507.2726    190.43177 
 1998000    821.45851   -895.07923            0   -881.48795   -3500.2413    13.440161    13.567181    13.463008    1.8216996    3509.1732    188.58571 
 1999000     782.6554    -892.6168            0   -879.66754   -1323.7444    13.440161    13.567181    13.463008    2.3201575    3511.0102    186.73619 
 2000000    776.63562   -892.35086            0   -879.50119   -3168.1884    13.440161    13.567181    13.463008    2.1469933    3512.8459    184.88662 
 2001000    786.96115   -894.73818            0   -881.71767   -5109.4386    13.440161    13.567181    13.463008    2.5548846    3514.6834    183.03717 
 2002000    853.90968   -893.56269            0    -879.4345   -3738.7553    13.440161    13.567181    13.463008    3.0012826    3516.5148    181.18741 
 2003000    795.59379   -893.35418            0   -880.19084   -2259.9249    13.440161    13.567181    13.463008    2.2634724    3518.3704     179.3389 
 2004000    738.88406   -894.45926            0    -882.2342   -8392.4769    13.440161    13.567181    13.463008    2.3539826    3520.2212    177.49014 
 2005000    835.26745   -893.00096            0   -879.18121   -4675.4651    13.440161    13.567181    13.463008    2.3397378    3522.0736    175.64147 
 2006000    807.55779   -893.73781            0   -880.37652   -3025.3421    13.440161    13.567181    13.463008    2.0465145    3523.9352    173.79324 
 2007000    758.64072   -893.32139            0   -880.76945   -6730.5296    13.440161    13.567181    13.463008      2.71641    3525.7868    171.94451 
 2008000    804.75765   -893.72095            0   -880.40599   -8653.1617    13.440161    13.567181    13.463008    2.6455496    3527.6186    170.09482 
 2009000    773.35252   -893.15484            0   -880.35949   -6608.3535    13.440161    13.567181    13.463008     2.266362    3529.4528    168.24526 
 2010000    787.74529   -894.63932            0   -881.60584   -5517.2645    13.440161    13.567181    13.463008    1.7016649     3531.291    166.39591 
 2011000    861.59572   -893.65127            0   -879.39591   -5009.9863    13.440161    13.567181    13.463008    2.3142556    3533.1316    164.54668 
 2012000    826.08738   -893.50569            0   -879.83783   -3566.6205    13.440161    13.567181    13.463008    2.0912552    3534.9693    162.69733 
 2013000    799.60928   -894.98614            0   -881.75637   -6771.7259    13.440161    13.567181    13.463008    1.5613919    3536.8015    160.84774 
 2014000    887.06986   -894.04034            0    -879.3635   -1787.3106    13.440161    13.567181    13.463008    2.3241103    3538.6343     158.9982 
 2015000    746.05937   -894.15707            0   -881.81329   -1573.2053    13.440161    13.567181    13.463008    1.7530356    3540.4887    157.14963 
 2016000    756.77883    -893.9784            0   -881.45727   -2584.9924    13.440161    13.567181    13.463008    2.0230319    3542.3138    155.29977 
 2017000    803.36358   -892.97138            0   -879.67949   -4306.3191    13.440161    13.567181    13.463008    2.5623076    3544.1456    153.45023 
 2018000    736.05795     -893.135            0    -880.9567   -6106.8919    13.440161    13.567181    13.463008    1.9973539    3545.9983    151.60159 
 2019000    717.88203   -895.83638            0   -883.95881   -5752.2696    13.440161    13.567181    13.463008    2.6157889    3547.8594    149.75331 
 2020000    809.88641     -894.194            0   -880.79419   -4699.3523    13.440161    13.567181    13.463008    2.6036437    3549.6936     147.9039 
 2021000    895.54217   -894.32193            0   -879.50492    -3499.314    13.440161    13.567181    13.463008    2.6466067    3551.5278     146.0545 
 2022000    697.78704   -893.76697            0   -882.22187   -6439.3588    13.440161    13.567181    13.463008      2.29628    3553.3661    144.20528 
 2023000    819.84917    -894.3946            0   -880.82995   -4075.6385    13.440161    13.567181    13.463008    2.1974984    3555.1963    142.35576 
 2024000    733.59498   -892.16324            0   -880.02569   -5303.1614    13.440161    13.567181    13.463008    2.7756272    3557.0319    140.50646 
 2025000    756.14709   -894.39583            0   -881.88515   -4939.2015    13.440161    13.567181    13.463008    1.9175191    3558.8631    138.65701 
 2026000    721.24055   -894.45009            0   -882.51695   -3333.4962    13.440161    13.567181    13.463008    2.2545263    3560.7003     136.8078 
 2027000    782.60331   -892.28646            0   -879.33806   -819.58785    13.440161    13.567181    13.463008    2.4413735    3562.5387    134.95865 
 2028000    755.67197   -894.05341            0   -881.55059   -5666.3416    13.440161    13.567181    13.463008    2.2843696     3564.385    133.10981 
 2029000     759.8576   -894.25396            0   -881.68189   -6492.1766    13.440161    13.567181    13.463008    2.6129101     3566.215    131.26038 
 2030000    796.23763   -892.60373            0   -879.42974   -5497.7474    13.440161    13.567181    13.463008    2.0595738    3568.0692    129.41183 
 2031000    743.91614   -894.03351            0    -881.7252   -7312.3024    13.440161    13.567181    13.463008    2.6924114    3569.9131    127.56292 
 2032000    816.34089   -893.03855            0   -879.53195   -5730.4844    13.440161    13.567181    13.463008    2.6597336    3571.7924    125.71526 
 2033000    808.10777   -892.75776            0   -879.38737   -4155.9864    13.440161    13.567181    13.463008     2.106062    3573.6248    123.86594 
 2034000    808.49132   -894.23373            0     -880.857   -6329.3861    13.440161    13.567181    13.463008    2.1332744    3575.4778    122.01734 
 2035000    768.84925   -893.29066            0   -880.56982   -1246.0468    13.440161    13.567181    13.463008    2.0288249    3577.3157    120.16823 
 2036000    720.12288   -891.96154            0   -880.04689   -5210.6996    13.440161    13.567181    13.463008    2.2699027     3579.164    118.31947 
 2037000    819.39388   -892.66434            0   -879.10722   -5477.5602    13.440161    13.567181    13.463008    3.0891654    3581.0041    116.47045 
 2038000    783.81915   -894.95735            0   -881.98883   -6604.2054    13.440161    13.567181    13.463008    1.7572379    3582.8353    114.62115 
 2039000     879.8244   -893.62742            0   -879.07046   -4315.1191    13.440161    13.567181    13.463008    2.6543421    3584.6611     112.7717 
 2040000    924.51679   -894.53196            0   -879.23556   -5291.4462    13.440161    13.567181    13.463008    2.4404869    3586.4863    110.92226 
 2041000    711.16726   -893.28934            0   -881.52286   -4973.8979    13.440161    13.567181    13.463008    2.3841073    3588.3155    109.07296 
 2042000    902.94131   -893.50134            0   -878.56191     77.98699    13.440161    13.567181    13.463008     2.660651    3590.1436    107.22365 
 2043000    828.55043   -893.63192            0   -879.92331   -6428.1906    13.440161    13.567181    13.463008    1.9779395    3591.9721    105.37438 
 2044000    788.82605   -894.04041            0   -880.98905   -6332.4408    13.440161    13.567181    13.463008    2.0868908    3593.7965      103.525 
 2045000    788.10753   -891.21333            0   -878.17385   -2935.1237    13.440161    13.567181    13.463008    2.0092747    3595.6399    101.67619 
 2046000    867.61958   -893.16048            0   -878.80545    -5660.525    13.440161    13.567181    13.463008    2.7858761    3597.4725    99.827089 
 2047000    813.57067   -894.18939            0   -880.72862   -4477.1256    13.440161    13.567181    13.463008    1.9510656    3599.3173    97.978334 
 2048000    771.03264   -894.53577            0    -881.7788   -5306.9804    13.440161    13.567181    13.463008    1.5856168    3601.1436     96.12909 
 2049000     913.9175   -894.24915            0   -879.12811   -4243.8286    13.440161    13.567181    13.463008    2.2458157     3602.982    94.280185 
 2050000    753.52802   -893.18312            0   -880.71577    -4585.612    13.440161    13.567181    13.463008    2.0130976    3604.8076    92.430964 
 2051000    808.11645   -894.93342            0   -881.56289   -6935.0374    13.440161    13.567181    13.463008    2.1116675    3606.6558    90.582335 
 2052000    868.53153   -894.04949            0   -879.67937   -2371.1175    13.440161    13.567181    13.463008    2.3006415    3608.4833    88.733196 
 2053000    725.20284   -894.12174            0   -882.12304   -5104.3207    13.440161    13.567181    13.463008    2.3548933    3610.3327    86.884606 
 2054000    692.04997    -892.7678            0   -881.31763   -5031.7755    13.440161    13.567181    13.463008    2.7911888    3612.1573    85.035433 
 2055000    790.09876    -892.7663            0   -879.69388    -4055.119    13.440161    13.567181    13.463008    2.2231808    3613.9869      83.1864 
 2056000    705.36628   -894.37221            0   -882.70172   -3394.3659    13.440161    13.567181    13.463008    3.2934848    3615.8142    81.337334 
 2057000    731.19936   -894.04772            0   -881.94981   -5871.2113    13.440161    13.567181    13.463008    2.6102105    3617.6518    79.488517 
 2058000    779.94493   -893.12133            0   -880.21691   -5329.5616    13.440161    13.567181    13.463008    1.8115407     3619.477    77.639445 
 2059000    755.97777   -891.67974            0   -879.17186   -2172.0841    13.440161    13.567181    13.463008    2.4570582    3621.3152    75.790671 
 2060000    758.62622   -894.88825            0   -882.33655   -5938.1883    13.440161    13.567181    13.463008    2.4072808    3623.1398    73.941628 
 2061000    771.97871   -893.15584            0   -880.38322   -891.46353    13.440161    13.567181    13.463008    2.5456924    3624.9661    72.092646 
 2062000    797.23176   -893.35793            0   -880.16749   -2119.4469    13.440161    13.567181    13.463008    2.3229726     3626.792    70.243678 
 2063000     712.6198   -893.19937            0   -881.40887   -6419.1203    13.440161    13.567181    13.463008     1.767226    3628.6218    68.394807 
 2064000     779.0061   -892.84659            0    -879.9577   -6038.9856    13.440161    13.567181    13.463008    2.6013472    3630.4514    66.545952 
 2065000    846.65183    -893.1967            0   -879.18859   -4479.2892    13.440161    13.567181    13.463008    3.1352352    3632.2868     64.69722 
 2066000    674.25292   -893.04726            0   -881.89154    -6193.942    13.440161    13.567181    13.463008    2.3318503    3634.1241    62.848535 
 2067000    811.41691   -893.44327            0   -880.01814   -2980.9722    13.440161    13.567181    13.463008    2.0227983    3635.9616    60.999864 
 2068000    729.56644   -891.92117            0   -879.85027   -4703.0832    13.440161    13.567181    13.463008     2.872015    3637.8107    59.151393 
 2069000    708.00488   -894.31257            0   -882.59842   -5541.9583    13.440161    13.567181    13.463008    2.2158101    3639.6406     57.30262 
 2070000     776.4799   -892.42714            0   -879.58005   -5418.0374    13.440161    13.567181    13.463008    2.2504626    3641.4688     55.45384 
 2071000    787.69122   -893.42865            0   -880.39606   -4464.4251    13.440161    13.567181    13.463008    3.1852699    3643.2969    53.605079 
 2072000    719.54311    -895.2373            0   -883.33225   -5064.9441    13.440161    13.567181    13.463008    2.1271405    3645.1252    51.756341 
 2073000    667.16392   -892.12351            0   -881.08508   -1687.3542    13.440161    13.567181    13.463008     2.199019    3646.9499    49.907576 
 2074000    785.51368   -892.10882            0   -879.11227     -2587.59    13.440161    13.567181    13.463008    2.7579451    3648.7763    48.058857 
 2075000    844.98445   -894.73618            0   -880.75566   -3245.2374    13.440161    13.567181    13.463008    2.0491369    3650.6058      46.2102 
 2076000    772.25068   -894.15974            0   -881.38262   -3811.5831    13.440161    13.567181    13.463008    1.9513409    3652.4318     44.36152 
 2077000    861.01968   -893.37764            0   -879.13181   -2906.9639    13.440161    13.567181    13.463008    2.4353059     3654.258    42.512865 
 2078000    767.51111   -893.39657            0   -880.69787   -2454.4846    13.440161    13.567181    13.463008    2.5193515    3656.0892    40.664288 
 2079000    716.17772   -895.61114            0   -883.76176   -6577.8194    13.440161    13.567181    13.463008    2.0153336    3657.9178    38.815701 
 2080000    717.10101    -892.4388            0   -880.57415    -4403.168    13.440161    13.567181    13.463008    3.8186014    3659.7603    36.967275 
 2081000    826.36709   -893.03783            0   -879.36534   -4146.7284    13.440161    13.567181    13.463008    1.9980769    3661.5883    35.118716 
 2082000      689.763   -893.46176            0   -882.04942   -4595.9341    13.440161    13.567181    13.463008    3.4137763    3663.4156    33.270172 
 2083000    861.77948   -893.87807            0   -879.61967   -6378.6973    13.440161    13.567181    13.463008     2.476061    3665.2424    31.421645 
 2084000    821.79163   -893.39002            0   -879.79323   -329.93943    13.440161    13.567181    13.463008    2.6566459     3667.077    29.573202 
 2085000    760.28718   -894.31009            0   -881.73091   -6761.3275    13.440161    13.567181    13.463008    1.6013796    3668.9051    27.724724 
 2086000    838.54376    -891.9406            0   -878.06664   -2506.6986    13.440161    13.567181    13.463008    3.7373345     3670.736    25.876286 
 2087000    785.28648   -893.60481            0   -880.61201   -4571.1308    13.440161    13.567181    13.463008     2.138937    3672.5614     24.02783 
 2088000    798.20046   -893.90897            0   -880.70251   -8079.8594    13.440161    13.567181    13.463008    1.9981225    3674.3876    22.179402 
 2089000    812.76043   -891.78154            0   -878.33417   -2591.5894    13.440161    13.567181    13.463008    2.5725313    3676.2126    20.330989 
 2090000    889.79246   -893.29413            0   -878.57225   -2771.4827    13.440161    13.567181    13.463008    2.4696529    3678.0423    18.482625 
 2091000    718.92596   -893.07687            0   -881.18202   -5295.7146    13.440161    13.567181    13.463008    2.7624872    3679.8852    16.634338 
 2092000     837.8232   -893.83947            0   -879.97744   -2161.5643    13.440161    13.567181    13.463008    2.4213384    3681.7074    14.785974 
 2093000    821.03919   -892.17171            0   -878.58737   -4017.0589    13.440161    13.567181    13.463008    2.2778028    3683.5453     12.93769 
 2094000    824.46262    -895.2221            0   -881.58112   -3746.9264    13.440161    13.567181    13.463008    1.9805433     3685.371    11.089381 
 2095000    803.62814   -892.65873            0   -879.36246   -2795.2154    13.440161    13.567181    13.463008    2.3502726    3687.2043    9.2411135 
 2096000    754.74071   -893.23125            0   -880.74384   -5116.3302    13.440161    13.567181    13.463008     2.820941    3689.0308    7.3928472 
 2097000    778.39012   -894.66048            0   -881.78178   -4306.0506    13.440161    13.567181    13.463008    2.2962695    3690.8747     5.544629 
 2098000    825.24829   -892.98419            0   -879.33021   -2465.1576    13.440161    13.567181    13.463008    2.3142861    3692.7012    3.6963976 
 2099000    854.67555    -894.4795            0   -880.33864   -4033.5719    13.440161    13.567181    13.463008     1.974882    3694.5267    1.8481874 
 2100000    819.58969   -894.13727            0   -880.57692   -5084.0095    13.440161    13.567181    13.463008    1.7743162    3696.3521            0 
Loop time of 3696.35 on 1 procs for 2000000 steps with 129 atoms

Performance: 46.749 ns/day, 0.513 hours/ns, 541.074 timesteps/s
99.9% CPU use with 1 MPI tasks x no OpenMP threads

MPI task timing breakdown:
Section |  min time  |  avg time  |  max time  |%varavg| %total
---------------------------------------------------------------
Pair    | 2454.3     | 2454.3     | 2454.3     |   0.0 | 66.40
Kspace  | 1167.3     | 1167.3     | 1167.3     |   0.0 | 31.58
Neigh   | 29.798     | 29.798     | 29.798     |   0.0 |  0.81
Comm    | 32.083     | 32.083     | 32.083     |   0.0 |  0.87
Output  | 0.61433    | 0.61433    | 0.61433    |   0.0 |  0.02
Modify  | 5.9154     | 5.9154     | 5.9154     |   0.0 |  0.16
Other   |            | 6.275      |            |       |  0.17

Nlocal:        129.000 ave         129 max         129 min
Histogram: 1 0 0 0 0 0 0 0 0 0
Nghost:        3766.00 ave        3766 max        3766 min
Histogram: 1 0 0 0 0 0 0 0 0 0
Neighs:        38926.0 ave       38926 max       38926 min
Histogram: 1 0 0 0 0 0 0 0 0 0

Total # of neighbors = 38926
Ave neighs/atom = 301.75194
Neighbor list builds = 28624
Dangerous builds = 0

# Final Commands
variable final_energy equal etotal
print "final_energy: ${final_energy}"
final_energy: -880.576918192577
print "END_OF_COMP"
END_OF_COMP
Total wall time: 1:05:16
