LAMMPS (10 Feb 2021)
# Input written to comply with LAMMPS 2017-08-11 00:00:00

# Atomic Configuration
units           metal
boundary        p p p
box tilt large
atom_style      charge
read_data       na3ocl.lmp
Reading data file ...
  orthogonal box = (0.0000000 0.0000000 0.0000000) to (13.503000 13.503000 13.503000)
  1 by 1 by 1 MPI processor grid
  reading atoms ...
  135 atoms
  read_data CPU = 0.001 seconds

# Potential Setup
pair_style  buck/coul/long 12.0
pair_coeff * * 0.0 1.0 0.0
pair_coeff 1 1    1788.190000  0.159000   0.000000 # Na Na
pair_coeff 1 3    1170.410000  0.315000   0.000000 # Na Cl
pair_coeff 1 2     588.380000  0.338000   0.000000 # Na O
pair_coeff 3 3    1227.200000  0.321000  14.530000 # Cl Cl
pair_coeff 2 3    8286.910000  0.259000  62.200000 # Cl O
pair_coeff 2 2   22764.300000  0.149000  13.190000 # O  O
kspace_style pppm 1e-05

# General Setup
timestep        0.001

# Thermodynamic Information Output
thermo_style custom step temp epair emol etotal press lx ly lz fmax cpu cpuremain
thermo          1000

# Intial Atom Velocity
velocity all create 300 80800 dist gaussian rot yes

# Stage 0: npt_equilibriation
restart         0
fix             int all npt aniso 1.0 1.0 0.1 temp 800 800 0.5
run             50000
PPPM initialization ...
  using 12-bit tables for long-range coulomb (../kspace.cpp:339)
  G vector (1/distance) = 0.27806613
  grid = 15 15 15
  stencil order = 5
  estimated absolute RMS force accuracy = 6.1564455e-05
  estimated relative force accuracy = 4.2754148e-06
  using double precision KISS FFT
  3d grid and FFT values/proc = 10648 3375
Neighbor list info ...
  update every 1 steps, delay 10 steps, check yes
  max neighbors/atom: 2000, page size: 100000
  master list distance cutoff = 14
  ghost atom cutoff = 14
  binsize = 7, bins = 2 2 2
  1 neighbor lists, perpetual/occasional/extra = 1 0 0
  (1) pair buck/coul/long, perpetual
      attributes: half, newton on
      pair build: half/bin/atomonly/newton
      stencil: half/bin/3d/newton
      bin: standard
Per MPI rank memory allocation (min/avg/max) = 4.411 | 4.411 | 4.411 Mbytes
Step Temp E_pair E_mol TotEng Press Lx Ly Lz Fmax CPU CPULeft 
       0          300    -935.0408            0   -929.84455   -22334.388       13.503       13.503       13.503 2.2762301e-07            0            0 
    1000    274.48457   -931.99667            0   -927.24236    7076.8145    13.125124    13.215275    13.283177    1.5055464     2.690069    131.81338 
    2000    497.35778   -927.88274            0   -919.26807   -1823.7721    13.349747    13.408927    13.358229    2.1644546    5.3691771    128.86027 
    3000    740.56741   -922.25917            0   -909.43191    727.96403    13.486186    13.252464    13.477208    2.2375895     8.042325    125.99644 
    4000    956.93283    -920.9202            0    -904.3453     2292.366    13.205281    13.569935     13.55188    3.2212067    10.699675    123.04627 
    5000    779.64377   -923.67673            0   -910.17263    4363.6464    13.342848    13.573885    13.239788    2.4160586    13.339232    120.05309 
    6000    772.81332   -923.51182            0   -910.12603   -2318.2414     13.30746    13.592626    13.513076    2.1504178    15.985471    117.22679 
    7000    893.56284   -920.53073            0   -905.05346    856.74892    13.231382    13.539503    13.580168    2.5258271    18.625761     114.4154 
    8000    780.81633   -922.67144            0   -909.14703    3915.6091    13.527998    13.343538    13.329096    2.5870755    21.272542    111.68085 
    9000    714.12292   -922.19661            0   -909.82739    1849.6369    13.405982    13.439324    13.372239    3.1516272    23.938439    109.05289 
   10000    807.23764   -920.46475            0    -906.4827    4092.4747    13.656554    13.397255    13.220352    2.4999355    26.589924     106.3597 
   11000    723.59267    -921.0084            0   -908.47515   -6498.5843    13.573755    13.352905    13.691593     2.142336    29.226904    103.62266 
   12000    734.83634   -922.89821            0   -910.17021   -1995.0557    13.531848    13.554885    13.374543    1.7602788    31.867301    100.91312 
   13000    791.48308   -920.65672            0   -906.94756   -5777.7907    13.572974    13.574061    13.430766    2.5184612    34.533075    98.286447 
   14000    762.82353   -922.31423            0   -909.10147   -3777.0192    13.373053     13.56589    13.503469     2.624629     37.18177    95.610268 
   15000    811.21767    -923.1583            0   -909.10731   -3391.9127    13.369088    13.439453    13.677132    2.5051341    39.819297    92.911695 
   16000    780.72691   -921.41931            0   -907.89645   -4170.2952    13.352957    13.506441     13.61974    2.6071651    42.467077    90.242541 
   17000    796.33785    -924.3571            0   -910.56385    488.05433    13.611399    13.268333    13.397279    1.9585529    45.109884    87.566247 
   18000    777.71101   -923.19409            0   -909.72347    -3081.045    13.517876    13.505619    13.387428    2.1366656     47.76535    84.916178 
   19000    759.46358   -921.32453            0   -908.16997   -2759.0682     13.41799    13.594362    13.552628    2.3365807    50.402807     82.23616 
   20000    815.19055   -922.55607            0   -908.43627    2190.6402    13.495997     13.27953    13.440679    2.3584914    53.043724    79.565586 
   21000    717.32906   -922.67589            0   -910.25114   -2927.7204    13.649662    13.484118    13.269983    2.3425008    55.685654    76.899236 
   22000    815.31598   -920.86489            0   -906.74292   -1329.6816    13.669494    13.188176    13.584569    2.5591482    58.337442    74.247655 
   23000    855.16775   -922.74255            0   -907.93031    -5188.405    13.434871    13.728138    13.390279    3.0221237    60.974526    71.578793 
   24000    713.88386   -921.16309            0   -908.79801   -374.66177    13.328576    13.455015    13.612514    1.9424268    63.618482    68.920023 
   25000    792.33849   -921.10722            0   -907.38324    5159.1378    13.452807    13.245305    13.534051    2.7145993     66.26387     66.26387 
   26000    860.09905   -922.64034            0   -907.74268    3895.7487     13.52199    13.199549    13.495212    2.1080353    68.895871     63.59619 
   27000    764.69057   -923.03062            0   -909.78552    2049.5255     13.51686    13.335856    13.404814    2.2719982     71.53886    60.940511 
   28000    824.85285   -921.47967            0   -907.19251     1336.132    13.351189    13.430385    13.522887    2.2053877    74.181564    58.285515 
   29000    801.29673   -921.81244            0   -907.93329    4776.6324    13.490999    13.308444    13.428913    1.7168007    76.829468    55.635133 
   30000    795.24879   -922.84518            0   -909.07079   -1561.9111    13.426509    13.608532    13.330994    2.7533659    79.466255    52.977504 
   31000    765.24273   -921.98249            0   -908.72783   -6517.8718    13.549484     13.54165    13.519507    2.4372071    82.102273    50.320749 
   32000     774.0292   -922.13934            0   -908.73249    1354.3352    13.533606    13.351142    13.415126    2.3447826    84.752206    47.673116 
   33000    740.13548   -920.82998            0   -908.01019   -2964.9204    13.330353    13.599875    13.655317    1.9994572    87.394522     45.02142 
   34000    931.98938   -923.48075            0    -907.3379    5504.4289    13.381895    13.305202    13.501706    2.9538327    90.031009    42.367534 
   35000    752.30595   -922.64675            0   -909.61616   -324.30911    13.287902    13.629327    13.400571    2.4966221    92.669973    39.715703 
   36000    770.37691   -921.96128            0   -908.61769   -4384.7228    13.538944    13.389682    13.611168    2.6133391    95.309973     37.06499 
   37000    928.05294   -923.18203            0   -907.10735   -8116.6233    13.572616    13.433841    13.622117    2.2611771    97.946461    34.413622 
   38000    802.27288   -923.17836            0   -909.28231   -4247.1133    13.476783    13.528881    13.449752     2.482674    100.58365    31.763259 
   39000    722.49888   -923.55172            0   -911.03741   -275.47734    13.204647    13.597255    13.485037    2.5033264    103.22908    29.115896 
   40000    781.25896    -922.3021            0   -908.77002   -4895.8278    13.646469    13.419885    13.467448     1.684395    105.87184    26.467961 
   41000    743.65985   -920.49539            0   -907.61456   -7569.2963    13.692146    13.403132    13.588139    3.5056003    108.49999    23.817071 
   42000    699.44698   -923.24014            0   -911.12512   -1901.2345    13.585444    13.552731    13.266508    2.4064261    111.13858    21.169254 
   43000    891.26787   -923.74399            0   -908.30647    1554.8951    13.305004     13.59791    13.366239    2.1769988    113.77624    18.521713 
   44000    839.71858   -923.03825            0    -908.4936   -2685.5283    13.445833    13.446067     13.49889    2.6784267    116.41706    15.875054 
   45000    810.47334   -921.89674            0   -907.85864    391.64782    13.541005    13.498785    13.397849    2.3843724    119.06411    13.229346 
   46000    872.42619   -922.10758            0    -906.9964    8694.2553    13.306767    13.243509    13.541495    2.2649234    121.71035    10.583508 
   47000    795.85897   -924.18796            0     -910.403    -6301.022    13.686463    13.271769    13.495949    1.8111882    124.36106    7.9379403 
   48000    821.99137   -922.83222            0   -908.59462   -919.98285    13.584019    13.310608    13.390194    2.1850253    127.00887    5.2920365 
   49000    802.23925   -922.10229            0   -908.20681   -1289.8453    13.407252    13.344263    13.594361    2.7044982    129.65826    2.6460869 
   50000    864.72971   -921.07674            0   -906.09888   -5318.9542    13.482302    13.395907    13.717595    1.9200397    132.30586            0 
Loop time of 132.306 on 1 procs for 50000 steps with 135 atoms

Performance: 32.652 ns/day, 0.735 hours/ns, 377.912 timesteps/s
99.9% CPU use with 1 MPI tasks x no OpenMP threads

MPI task timing breakdown:
Section |  min time  |  avg time  |  max time  |%varavg| %total
---------------------------------------------------------------
Pair    | 68.754     | 68.754     | 68.754     |   0.0 | 51.97
Kspace  | 29.409     | 29.409     | 29.409     |   0.0 | 22.23
Neigh   | 1.081      | 1.081      | 1.081      |   0.0 |  0.82
Comm    | 0.8944     | 0.8944     | 0.8944     |   0.0 |  0.68
Output  | 0.0011351  | 0.0011351  | 0.0011351  |   0.0 |  0.00
Modify  | 31.968     | 31.968     | 31.968     |   0.0 | 24.16
Other   |            | 0.1972     |            |       |  0.15

Nlocal:        135.000 ave         135 max         135 min
Histogram: 1 0 0 0 0 0 0 0 0 0
Nghost:        3991.00 ave        3991 max        3991 min
Histogram: 1 0 0 0 0 0 0 0 0 0
Neighs:        43886.0 ave       43886 max       43886 min
Histogram: 1 0 0 0 0 0 0 0 0 0

Total # of neighbors = 43886
Ave neighs/atom = 325.08148
Neighbor list builds = 966
Dangerous builds = 0

# Stage 1: nvt_equilibriation
unfix int
restart         0
fix             int all nvt temp 800 800 0.5
run             50000
PPPM initialization ...
  using 12-bit tables for long-range coulomb (../kspace.cpp:339)
  G vector (1/distance) = 0.27795341
  grid = 15 15 15
  stencil order = 5
  estimated absolute RMS force accuracy = 6.1984694e-05
  estimated relative force accuracy = 4.3045988e-06
  using double precision KISS FFT
  3d grid and FFT values/proc = 10648 3375
Per MPI rank memory allocation (min/avg/max) = 4.411 | 4.411 | 4.411 Mbytes
Step Temp E_pair E_mol TotEng Press Lx Ly Lz Fmax CPU CPULeft 
   50000    864.72971   -921.07671            0   -906.09885   -5318.7871    13.482302    13.395907    13.717595    1.9200394            0            0 
   51000    799.48885   -923.01259            0   -909.16475   -5511.3904    13.482302    13.395907    13.717595    1.9674982    1.9724641     96.65074 
   52000    686.31708    -920.4684            0    -908.5808   -4971.0464    13.482302    13.395907    13.717595    2.4225431    3.9403112    94.567469 
   53000    817.78612   -921.09908            0   -906.93433   -4138.3747    13.482302    13.395907    13.717595    2.4366803    5.9102101    92.593292 
   54000    755.98405   -921.84958            0   -908.75529   -4621.8127    13.482302    13.395907    13.717595    2.4477254     7.880121    90.621391 
   55000     786.9121   -922.34244            0   -908.71245   -4739.4593    13.482302    13.395907    13.717595    2.4997737     9.861696    88.755275 
   56000     809.6422   -920.53475            0   -906.51105   -5546.0073    13.482302    13.395907    13.717595     3.024708    11.849103    86.893431 
   57000      734.419   -920.91554            0   -908.19477   -6652.1362    13.482302    13.395907    13.717595    2.4722763    13.827697    84.941573 
   58000    803.80891   -921.97621            0   -908.05355   -5006.0382    13.482302    13.395907    13.717595    2.4862704    15.804541    82.973841 
   59000    842.51786   -922.27889            0   -907.68576   -5245.9072    13.482302    13.395907    13.717595    1.8034996    17.787674    81.032738 
   60000     855.0309   -921.69943            0   -906.88956    -5456.818    13.482302    13.395907    13.717595    2.4063852    19.762679     79.05072 
   61000    787.53005   -921.88492            0   -908.24423   -4667.6075    13.482302    13.395907    13.717595    2.2614936    21.740177    77.078813 
   62000    812.56906   -923.68534            0   -909.61095   -5544.3296    13.482302    13.395907    13.717595    2.7606087    23.714532    75.096021 
   63000    881.93565   -921.45763            0   -906.18175   -3498.5525    13.482302    13.395907    13.717595     1.981549    25.690712    73.119722 
   64000    784.29474   -922.29564            0   -908.71098    -7570.149    13.482302    13.395907    13.717595     2.339232    27.671711    71.155831 
   65000      767.994   -921.24482            0    -907.9425   -5121.1067    13.482302    13.395907    13.717595    1.6951156    29.711905    69.327781 
   66000    824.36195   -919.93823            0   -905.65957    -3170.029    13.482302    13.395907    13.717595    2.5903712    31.694704    67.351246 
   67000    773.54463   -922.12217            0   -908.72371   -7021.2359    13.482302    13.395907    13.717595    2.4495183    33.672065     65.36342 
   68000    829.35832   -921.13243            0   -906.76724   -5909.8248    13.482302    13.395907    13.717595    2.4992755     35.65102    63.379593 
   69000    766.73116   -919.57091            0   -906.29047   -3048.6104    13.482302    13.395907    13.717595    2.9694451    37.644415    61.419837 
   70000    825.55519   -922.17426            0   -907.87494    -2700.246    13.482302    13.395907    13.717595    2.1428085    39.620645    59.430969 
   71000    797.78861   -922.06568            0    -908.2473   -6654.0976    13.482302    13.395907    13.717595    2.3215657    41.601826    57.450142 
   72000    828.29413   -920.41659            0   -906.06982   -5308.1568    13.482302    13.395907    13.717595    2.6331421    43.580484    55.466072 
   73000    800.51937   -922.37233            0   -908.50665   -8112.2051    13.482302    13.395907    13.717595    2.1575505        45.56    53.483478 
   74000    783.75008    -922.2251            0   -908.64988   -4658.9797    13.482302    13.395907    13.717595    2.1122233     47.53669    51.498081 
   75000    822.60964   -921.16975            0   -906.92144   -6294.3818    13.482302    13.395907    13.717595    3.2007863    49.526094    49.526095 
   76000    765.73089   -920.84933            0   -907.58622   -8142.7073    13.482302    13.395907    13.717595    2.2252111    51.506954    47.544882 
   77000    759.12465    -922.3645            0   -909.21581   -5028.2285    13.482302    13.395907    13.717595    1.9267811    53.487086    45.563073 
   78000      707.726   -922.26713            0    -910.0087   -6400.7223    13.482302    13.395907    13.717595    2.1821138     55.46897    43.582763 
   79000    855.87003    -921.8603            0    -907.0359   -4714.3192    13.482302    13.395907    13.717595    2.0950546    57.448052    41.600314 
   80000    791.52337   -922.59036            0   -908.88049   -7142.3281    13.482302    13.395907    13.717595    1.9407033    59.426453    39.617636 
   81000     749.6387    -922.6687            0   -909.68431   -5910.2292    13.482302    13.395907    13.717595    2.3963791    61.404374     37.63494 
   82000    777.31065   -919.94298            0    -906.4793   -7894.9985    13.482302    13.395907    13.717595    2.2936802    63.385002    35.654064 
   83000    770.86175   -922.38423            0   -909.03224   -7685.5312    13.482302    13.395907    13.717595    1.8404775    65.366854    33.673834 
   84000    801.61201   -921.47109            0   -907.58648   -4729.4086    13.482302    13.395907    13.717595    2.0640414    67.355655    31.696779 
   85000    891.11469   -922.07699            0   -906.64212   -4941.5131    13.482302    13.395907    13.717595    2.7869367    69.335672    29.715288 
   86000     810.2905   -922.97211            0   -908.93718   -8604.1816    13.482302    13.395907    13.717595    2.7585319     71.31633    27.734129 
   87000    793.07612   -920.84917            0   -907.11241   -6349.3359    13.482302    13.395907    13.717595    2.3275602     73.30837    25.756995 
   88000    787.95682   -917.47715            0   -903.82906    -2321.924    13.482302    13.395907    13.717595     2.273231    75.288601    23.775348 
   89000    800.23269   -921.58202            0    -907.7213   -5622.6053    13.482302    13.395907    13.717595    1.9796849    77.274592    21.795398 
   90000    749.71303   -921.97862            0   -908.99294   -5058.9846    13.482302    13.395907    13.717595    2.7674785    79.253722    19.813431 
   91000    885.37356   -920.86331            0   -905.52788    -5615.149    13.482302    13.395907    13.717595     2.296751    81.242659    17.833755 
   92000    851.50679   -922.56289            0   -907.81407   -7954.7852    13.482302    13.395907    13.717595     2.320136    83.234385    15.854169 
   93000     736.6107   -920.76737            0   -908.00864   -6663.9375    13.482302    13.395907    13.717595    2.0889758    85.219387    13.872924 
   94000     855.7464   -921.48568            0   -906.66341    -3796.337    13.482302    13.395907    13.717595    2.2177667    87.214954    11.892948 
   95000    844.36736   -921.40505            0   -906.77989   -5753.6198    13.482302    13.395907    13.717595    2.5029761     89.19668    9.9107423 
   96000    754.09754   -922.06679            0   -909.00518   -6657.0016    13.482302    13.395907    13.717595    2.4463639    91.187371    7.9293367 
   97000    834.01168   -920.42497            0   -905.97917    -3534.215    13.482302    13.395907    13.717595     3.221476    93.165166    5.9467127 
   98000    827.26786   -921.91375            0   -907.58476   -8139.3792    13.482302    13.395907    13.717595    2.0595081    95.150785    3.9646161 
   99000    753.42851   -921.97047            0   -908.92044   -5188.7032    13.482302    13.395907    13.717595     4.523622    97.132655    1.9822991 
  100000    900.11263   -921.88699            0   -906.29626   -5704.0778    13.482302    13.395907    13.717595    2.6275108     99.10882            0 
Loop time of 99.1088 on 1 procs for 50000 steps with 135 atoms

Performance: 43.588 ns/day, 0.551 hours/ns, 504.496 timesteps/s
99.9% CPU use with 1 MPI tasks x no OpenMP threads

MPI task timing breakdown:
Section |  min time  |  avg time  |  max time  |%varavg| %total
---------------------------------------------------------------
Pair    | 67.651     | 67.651     | 67.651     |   0.0 | 68.26
Kspace  | 29.477     | 29.477     | 29.477     |   0.0 | 29.74
Neigh   | 0.80636    | 0.80636    | 0.80636    |   0.0 |  0.81
Comm    | 0.84593    | 0.84593    | 0.84593    |   0.0 |  0.85
Output  | 0.0010695  | 0.0010695  | 0.0010695  |   0.0 |  0.00
Modify  | 0.15437    | 0.15437    | 0.15437    |   0.0 |  0.16
Other   |            | 0.1729     |            |       |  0.17

Nlocal:        135.000 ave         135 max         135 min
Histogram: 1 0 0 0 0 0 0 0 0 0
Nghost:        4015.00 ave        4015 max        4015 min
Histogram: 1 0 0 0 0 0 0 0 0 0
Neighs:        42326.0 ave       42326 max       42326 min
Histogram: 1 0 0 0 0 0 0 0 0 0

Total # of neighbors = 42326
Ave neighs/atom = 313.52593
Neighbor list builds = 722
Dangerous builds = 0

# Stage 2: main_nvt_simulation
unfix int
dump     atom_info all custom 1000 main_nvt_simulation-trajectory.lammpstrj element x y z q id type vx vy vz
dump_modify     atom_info append yes
dump_modify     atom_info sort id
dump_modify     atom_info element Na O Cl
restart         0
fix             int all nvt temp 800 800 0.5
run             2000000
PPPM initialization ...
  using 12-bit tables for long-range coulomb (../kspace.cpp:339)
  G vector (1/distance) = 0.27795341
  grid = 15 15 15
  stencil order = 5
  estimated absolute RMS force accuracy = 6.1984694e-05
  estimated relative force accuracy = 4.3045988e-06
  using double precision KISS FFT
  3d grid and FFT values/proc = 10648 3375
Per MPI rank memory allocation (min/avg/max) = 5.683 | 5.683 | 5.683 Mbytes
Step Temp E_pair E_mol TotEng Press Lx Ly Lz Fmax CPU CPULeft 
  100000    900.11263   -921.88699            0   -906.29626   -5704.0778    13.482302    13.395907    13.717595    2.6275108            0            0 
  101000    782.81209   -922.85098            0     -909.292   -5120.1524    13.482302    13.395907    13.717595    2.0626807    1.9433861    3884.8288 
  102000    764.75365   -922.21407            0   -908.96788   -6670.9727    13.482302    13.395907    13.717595    2.1312966    3.8866172    3882.7306 
  103000    806.41372   -921.18131            0   -907.21353   -4345.2444    13.482302    13.395907    13.717595    1.8532901    5.8324201    3882.4483 
  104000    800.15988   -920.25959            0   -906.40014   -4857.5088    13.482302    13.395907    13.717595    3.0772144    7.7705832     3877.521 
  105000    800.71922   -923.04543            0   -909.17629   -7090.8711    13.482302    13.395907    13.717595    1.7327821    9.7298272     3882.201 
  106000    876.15214   -922.16924            0   -906.99354   -5734.1083    13.482302    13.395907    13.717595    1.9053775    11.672432    3879.1386 
  107000    856.71384   -921.45728            0   -906.61826   -4653.2541    13.482302    13.395907    13.717595    2.6761058    13.622998    3878.6625 
  108000    821.63975    -922.3191            0   -908.08759   -5279.5623    13.482302    13.395907    13.717595    2.2737229    15.583693    3880.3398 
  109000    785.29482   -921.14315            0   -907.54116   -4159.8882    13.482302    13.395907    13.717595    2.2910206    17.544648    3881.2663 
  110000    972.97422   -921.09763            0   -904.24488   -4375.3421    13.482302    13.395907    13.717595    1.9435912    19.594951    3899.3955 
  111000    750.80049   -920.91532            0   -907.91081   -3756.1195    13.482302    13.395907    13.717595    2.2662362    21.562982    3898.9794 
  112000    830.08748   -922.70804            0   -908.33021   -7553.0926    13.482302    13.395907    13.717595    1.7680056    23.570604    3904.8636 
  113000    869.52521   -920.26192            0     -905.201   -4234.9831    13.482302    13.395907    13.717595    2.4346558    25.603854    3913.4508 
  114000     810.8657   -922.54623            0   -908.50134   -8474.6244    13.482302    13.395907    13.717595    2.0059267    27.599269    3915.1536 
  115000     752.7301   -920.90081            0   -907.86288   -7696.9123    13.482302    13.395907    13.717595    2.0214355    29.632321    3921.3438 
  116000    870.19768   -920.44222            0   -905.36965   -2127.9336    13.482302    13.395907    13.717595    2.3222542     31.67772    3928.0374 
  117000    752.45538   -921.87377            0    -908.8406   -4483.0629    13.482302    13.395907    13.717595    2.2353467    33.674792    3928.0656 
  118000    736.52522     -920.809            0   -908.05175   -6909.7931    13.482302    13.395907    13.717595     2.300267    35.641847    3924.5635 
  119000    920.07928   -922.23085            0   -906.29429   -9081.4153    13.482302    13.395907    13.717595    1.8665478    37.594781    3919.7506 
  120000    779.43882   -922.62995            0    -909.1294   -9050.3734    13.482302    13.395907    13.717595    1.6321747    39.554404    3915.8861 
  121000    757.13146   -921.28807            0   -908.17391   -6280.9477    13.482302    13.395907    13.717595    2.5436206    41.511462    3911.9611 
  122000    848.84306   -921.07288            0   -906.37018   -4197.6823    13.482302    13.395907    13.717595     2.496798    43.463779     3907.789 
  123000    672.50493   -921.19991            0   -909.55155   -3976.6412    13.482302    13.395907    13.717595    2.2350898    45.421761    3904.2967 
  124000     717.5276   -920.76799            0   -908.33979   -5392.0005    13.482302    13.395907    13.717595    2.0731224    47.390505    3901.8183 
  125000      739.468   -920.46539            0   -907.65717   -5330.5007    13.482302    13.395907    13.717595    2.5989672    49.342749    3898.0773 
  126000    772.65772     -920.939            0    -907.5559   -3803.7748    13.482302    13.395907    13.717595     2.569019    51.295457     3894.509 
  127000     840.6216    -923.5932            0   -909.03292   -7180.5257    13.482302    13.395907    13.717595    2.4124523    53.237834    3890.3054 
  128000    804.81244   -920.90604            0     -906.966   -5362.1453    13.482302    13.395907    13.717595    3.1068619    55.195095    3887.3118 
  129000    824.07996   -920.91235            0   -906.63858   -5224.7942    13.482302    13.395907    13.717595    2.5000188    57.148364    3884.1181 
  130000    741.90151   -921.19613            0   -908.34575   -7967.1656    13.482302    13.395907    13.717595    2.1498044    59.092694    3880.4203 
  131000    837.65498   -921.74361            0    -907.2347   -4843.4139    13.482302    13.395907    13.717595    1.9889694    61.032911    3876.5743 
  132000    810.37695   -921.31624            0   -907.27982   -5095.4484    13.482302    13.395907    13.717595    1.9515354    62.975873    3873.0162 
  133000     750.6553   -922.66152            0   -909.65953   -7864.6912    13.482302    13.395907    13.717595    2.1597617    64.927101    3870.0487 
  134000    858.52437    -921.0925            0   -906.22212   -5153.9176    13.482302    13.395907    13.717595    2.3502878    66.870723    3866.7013 
  135000    789.56201   -921.42221            0   -907.74631   -6615.8213    13.482302    13.395907    13.717595    1.6734173    68.812915    3863.3537 
  136000    696.90025   -921.07619            0   -909.00528   -5706.0896    13.482302    13.395907    13.717595    3.2970509    70.753985     3860.023 
  137000    791.53572   -919.34383            0   -905.63375   -2984.0071    13.482302    13.395907    13.717595     2.441065    72.699483    3857.0024 
  138000    795.48814   -922.45009            0   -908.67155   -6533.3627    13.482302    13.395907    13.717595    2.9810006     74.64691    3854.1379 
  139000     714.5367   -920.60027            0   -908.22388   -3633.1059    13.482302    13.395907    13.717595    2.2904866     76.59624    3851.4161 
  140000    913.46413   -919.71157            0   -903.88959   -2058.3105    13.482302    13.395907    13.717595     2.371308    78.538273    3848.3754 
  141000    923.49789   -921.50628            0    -905.5105   -4877.7892    13.482302    13.395907    13.717595    2.5218284    80.486067    3845.6636 
  142000    770.57369    -921.9655            0    -908.6185   -6766.0499    13.482302    13.395907    13.717595    2.3819402    82.437782    3843.1709 
  143000    785.96258   -921.64391            0   -908.03036   -5146.9751    13.482302    13.395907    13.717595    2.3071294    84.383842    3840.4461 
  144000    915.69989   -921.78873            0   -905.92803   -5124.1027    13.482302    13.395907    13.717595     2.747718    86.338418    3838.1352 
  145000    826.41143   -922.29549            0   -907.98133    -6492.057    13.482302    13.395907    13.717595    2.3590894    88.283293    3835.4187 
  146000    817.36412   -921.84434            0   -907.68689   -6895.1462    13.482302    13.395907    13.717595    1.8690092    90.243368    3833.3813 
  147000    921.62307     -920.982            0   -905.01869   -3920.0303    13.482302    13.395907    13.717595    2.8963421    92.192979    3830.9126 
  148000    726.43181    -921.0044            0   -908.42198   -7614.3236    13.482302    13.395907    13.717595    2.2571575    94.146957     3828.643 
  149000    736.24275   -920.72036            0     -907.968   -3124.5926    13.482302    13.395907    13.717595    2.1659651    96.089939    3825.9484 
  150000    1001.3532    -921.7961            0   -904.45181   -4305.5904    13.482302    13.395907    13.717595    1.9066103    98.033198    3823.2948 
  151000    764.51009   -921.77272            0   -908.53075   -6674.5064    13.482302    13.395907    13.717595    2.0274841    99.978909    3820.7627 
  152000    805.62373   -921.23761            0   -907.28351   -3317.1545    13.482302    13.395907    13.717595    2.0873768    101.93205    3818.5313 
  153000    932.92272   -922.50316            0   -906.34413   -4969.5522    13.482302    13.395907    13.717595    2.3706645    103.88753    3816.3965 
  154000    744.14371    -922.4214            0   -909.53219    -6822.142    13.482302    13.395907    13.717595    2.1357292    105.82809    3813.7306 
  155000     823.7432   -921.10081            0   -906.83287   -4518.8382    13.482302    13.395907    13.717595    2.8500023    107.76775    3811.0596 
  156000    837.60625   -921.66667            0   -907.15861   -6862.4845    13.482302    13.395907    13.717595    2.3849784    109.71191    3808.5708 
  157000    853.07188   -922.95675            0   -908.18082   -5284.3029    13.482302    13.395907    13.717595    1.8296222     111.6583    3806.1769 
  158000    762.39103   -923.12007            0    -909.9148   -8301.4564    13.482302    13.395907    13.717595    2.0533404    113.60364    3803.7631 
  159000     855.7645   -921.89316            0   -907.07058   -6822.2901    13.482302    13.395907    13.717595     2.037597     115.5498    3801.3927 
  160000    861.73942   -922.26338            0   -907.33731   -5679.6328    13.482302    13.395907    13.717595    2.4521151    117.49454    3798.9902 
  161000     749.4415   -923.25312            0   -910.27215   -10173.889    13.482302    13.395907    13.717595    1.8915277    119.43624    3796.5061 
  162000    772.89063    -921.4064            0   -908.01927   -4553.4586    13.482302    13.395907    13.717595    2.1322909    121.37787    3794.0374 
  163000    830.17242   -921.31029            0   -906.93099   -2423.3645    13.482302    13.395907    13.717595    2.8548539    123.32264    3791.6818 
  164000    770.76446   -923.77667            0   -910.42637   -10147.613    13.482302    13.395907    13.717595    1.7145012    125.27377    3789.5314 
  165000    811.58684   -921.69382            0   -907.63644   -4974.2145    13.482302    13.395907    13.717595    2.6233547    127.21464    3787.0818 
  166000    772.96955   -920.68703            0   -907.29854   -4351.8678    13.482302    13.395907    13.717595    3.2438424    129.20669    3786.1478 
  167000    682.80842   -922.45478            0   -910.62795   -6839.8548    13.482302    13.395907    13.717595    1.8848439    131.13926    3783.4656 
  168000    766.66663   -921.42197            0   -908.14264   -7366.6717    13.482302    13.395907    13.717595    2.0821551    133.09162    3781.3679 
  169000    758.42506   -920.58316            0   -907.44659   -4450.8245    13.482302    13.395907    13.717595    2.4862914    135.02806    3778.8288 
  170000    677.87556   -920.14837            0   -908.40698   -7081.2913    13.482302    13.395907    13.717595    3.3740849    136.97525    3776.6034 
  171000    645.42802   -920.52625            0   -909.34688   -3685.1212    13.482302    13.395907    13.717595    2.6736314    138.93418    3774.7047 
  172000    894.35131   -921.65114            0    -906.1602   -5114.0863    13.482302    13.395907    13.717595    2.7391909    140.91974    3773.5174 
  173000    715.30777   -920.66443            0   -908.27468   -7149.0757    13.482302    13.395907    13.717595    2.2780822    142.85482    3770.9759 
  174000    761.43986   -921.61396            0   -908.42517    -7900.445    13.482302    13.395907    13.717595    2.4543431    144.78785    3768.3972 
  175000    849.71808   -922.52144            0   -907.80359   -7756.6528    13.482302    13.395907    13.717595    1.8177114    146.74178    3766.3724 
  176000    788.65164   -920.63789            0   -906.97777   -6655.9311    13.482302    13.395907    13.717595    2.7252535    148.67704    3763.8767 
  177000     821.4589    -922.8632            0   -908.63483   -6873.8063    13.482302    13.395907    13.717595    2.8805276    150.61191    3761.3858 
  178000    741.18911   -921.79307            0   -908.95504   -3197.3605    13.482302    13.395907    13.717595    2.0302059    152.54825    3758.9454 
  179000    811.52375   -920.38958            0   -906.33329   -5384.4891    13.482302    13.395907    13.717595    2.7084908    154.54285    3757.9343 
  180000    748.36115   -921.83344            0   -908.87118   -6007.2748    13.482302    13.395907    13.717595    2.0608788    156.47741    3755.4579 
  181000    806.63908   -921.56537            0   -907.59369   -7610.2578    13.482302    13.395907    13.717595    2.5253436    158.40968    3752.9404 
  182000    918.16408   -918.72843            0   -902.82503   -2386.6652    13.482302    13.395907    13.717595    1.8133616    160.35454    3750.7318 
  183000    801.18668   -921.41543            0   -907.53819   -6096.1578    13.482302    13.395907    13.717595    1.8054417    162.29013    3748.3153 
  184000    785.51984   -922.47553            0   -908.86965   -5302.1164    13.482302    13.395907    13.717595    1.9007885    164.28043    3747.1585 
  185000    975.28642   -922.52447            0   -905.63167   -4494.0025    13.482302    13.395907    13.717595    2.5968473    166.21406    3744.7049 
  186000    824.73051   -922.50859            0   -908.22355   -5973.5095    13.482302    13.395907    13.717595    2.4125689     168.1488    3742.2885 
  187000    774.45993   -921.38068            0   -907.96636   -7897.5844    13.482302    13.395907    13.717595    2.3752477    170.08377     3739.888 
  188000    875.44114   -921.26381            0   -906.10041   -7138.1527    13.482302    13.395907    13.717595    2.6421172    172.08718     3738.985 
  189000     813.0574   -922.34353            0   -908.26067    -5030.422    13.482302    13.395907    13.717595    1.9042656    174.02192     3736.583 
  190000     784.3324   -922.43796            0   -908.85265   -8092.0386    13.482302    13.395907    13.717595    2.0947478    175.95216    3734.0959 
  191000    850.56527   -920.56171            0   -905.82919   -3184.8049    13.482302    13.395907    13.717595    2.1841181    177.88713    3731.7201 
  192000    806.87923   -921.43814            0    -907.4623    -3697.313    13.482302    13.395907    13.717595    2.5429152    179.81905    3729.2907 
  193000    738.98172   -921.82016            0   -909.02036    -9247.081    13.482302    13.395907    13.717595    2.5164197    181.75506     3726.956 
  194000    813.39001   -919.76909            0   -905.68047   -3611.2751    13.482302    13.395907    13.717595    2.3569001    183.68849    3724.5773 
  195000     776.5448   -921.66113            0   -908.21071    -3623.192    13.482302    13.395907    13.717595    2.3657299    185.62293    3722.2282 
  196000    793.72921   -922.09847            0    -908.3504    -4784.074    13.482302    13.395907    13.717595    2.0056477    187.55547    3719.8502 
  197000      885.458   -922.30938            0   -906.97248   -7432.7249    13.482302    13.395907    13.717595    1.8880923    189.54623    3718.6236 
  198000    940.31397   -920.70841            0   -904.42137   -4514.1029    13.482302    13.395907    13.717595    2.4432639    191.48436    3716.3598 
  199000    795.54885   -921.91737            0   -908.13778   -10050.477    13.482302    13.395907    13.717595    2.6275214    193.41918     3714.039 
  200000    789.46171   -921.50693            0   -907.83278   -6559.6626    13.482302    13.395907    13.717595    2.3553712    195.39638    3712.5312 
  201000    825.55192   -919.42426            0   -905.12499   -3500.4422    13.482302    13.395907    13.717595    2.3162562    197.33078    3710.2095 
  202000    820.35527   -922.62388            0   -908.41462   -8384.5178    13.482302    13.395907    13.717595    1.8226251    199.26149    3707.8266 
  203000    863.95942   -922.30375            0   -907.33924    -7168.186    13.482302    13.395907    13.717595     1.798681    201.19573    3705.5174 
  204000    786.81479   -918.85189            0   -905.22358   -544.93263    13.482302    13.395907    13.717595    2.6456333    203.21059    3704.6853 
  205000    803.94609   -922.84603            0     -908.921   -7088.2516    13.482302    13.395907    13.717595    2.2056369     205.1442    3702.3644 
  206000    813.46365    -921.3906            0   -907.30071   -5120.7036    13.482302    13.395907    13.717595     3.452966     207.0789    3700.0702 
  207000    832.36163   -920.95596            0   -906.53874   -5351.7495    13.482302    13.395907    13.717595    1.9570031    209.02018    3697.8991 
  208000    814.56845   -923.44839            0   -909.33937   -7034.5647    13.482302    13.395907    13.717595    2.1723014    211.00171    3696.4374 
  209000    876.09444   -921.69421            0    -906.5195   -4176.7046    13.482302    13.395907    13.717595    1.9617987    212.93404    3694.1125 
  210000    725.29624   -922.00499            0   -909.44224   -8161.0799    13.482302    13.395907    13.717595    1.8053874    214.86807    3691.8241 
  211000    812.00738   -923.11053            0   -909.04587   -7650.3502    13.482302    13.395907    13.717595    1.9364663    216.79993    3689.5051 
  212000    770.24389   -920.65624            0   -907.31496   -2772.8746    13.482302    13.395907    13.717595    2.6611598    218.73485    3687.2446 
  213000    781.88165   -922.70812            0   -909.16526   -6350.4109    13.482302    13.395907    13.717595    2.9305225    220.66951    3684.9856 
  214000    795.34896   -923.18334            0   -909.40721   -7966.6025    13.482302    13.395907    13.717595    2.3135176    222.60263    3682.7067 
  215000    890.00482   -922.68751            0   -907.27186    -5388.754    13.482302    13.395907    13.717595    2.6687152    224.53691    3680.4529 
  216000    742.42711   -921.66565            0   -908.80617   -7813.0181    13.482302    13.395907    13.717595    2.8856247    226.47268    3678.2287 
  217000    696.68856   -921.80573            0   -909.73849   -5572.0251    13.482302    13.395907    13.717595    2.2193116    228.44366    3676.5762 
  218000    819.28289   -921.60319            0    -907.4125   -4162.7174    13.482302    13.395907    13.717595    2.3323911    230.37659    3674.3113 
  219000    709.49978   -920.63252            0   -908.34338   -4128.2101    13.482302    13.395907    13.717595    2.3349997    232.31037    3672.0656 
  220000    743.77714    -922.8311            0   -909.94824   -9935.6189    13.482302    13.395907    13.717595      2.13828    234.24344    3669.8138 
  221000    794.66619   -920.20679            0   -906.44248   -4309.4582    13.482302    13.395907    13.717595    2.4275616    236.17743    3667.5817 
  222000    777.32271   -921.82139            0   -908.35749   -8260.9681    13.482302    13.395907    13.717595    2.3035263    238.21429     3666.938 
  223000    759.73339   -921.93374            0   -908.77451   -5766.1114    13.482302    13.395907    13.717595    1.9260718    240.14968    3664.7231 
  224000    839.88372   -920.68395            0   -906.13645    -4867.782    13.482302    13.395907    13.717595    1.7557491    242.08645    3662.5337 
  225000     837.4537   -923.46398            0   -908.95856   -8409.3751    13.482302    13.395907    13.717595    1.8394589    244.02326     3660.349 
  226000    856.41248   -920.93811            0   -906.10431    -3971.254    13.482302    13.395907    13.717595     2.645877    245.95567    3658.1026 
  227000    825.94953   -920.92505            0   -906.61889   -2391.0696    13.482302    13.395907    13.717595    3.3632924    247.91714    3656.2898 
  228000    722.39356     -920.708            0   -908.19552   -5684.2358    13.482302    13.395907    13.717595    2.3020692    249.85485    3654.1271 
  229000    763.94206   -920.68589            0   -907.45376   -5233.1014    13.482302    13.395907    13.717595    2.8753919    251.78808    3651.9031 
  230000    884.32533   -921.05039            0   -905.73312   -5283.4092    13.482302    13.395907    13.717595    1.9633662    253.72123    3649.6824 
  231000     766.7933   -921.90219            0   -908.62067   -4798.4771    13.482302    13.395907    13.717595    2.5050789    255.66598    3647.6315 
  232000    875.56428    -922.5024            0   -907.33687   -8298.0135    13.482302    13.395907    13.717595    1.8643384    257.59898    3645.4158 
  233000    901.83012   -919.31605            0   -903.69558   -2286.7704    13.482302    13.395907    13.717595    2.4652983    259.60318    3644.2041 
  234000    780.70937   -921.56595            0   -908.04339   -6362.0299    13.482302    13.395907    13.717595    2.7328641    261.54236     3642.075 
  235000    746.11562   -921.06471            0   -908.14135   -4503.3268    13.482302    13.395907    13.717595     2.291564    263.47639    3639.8776 
  236000    955.99653   -922.46676            0   -905.90807   -5349.7673    13.482302    13.395907    13.717595     2.040132    265.41186    3637.7038 
  237000    690.35084   -920.44521            0   -908.48774   -3973.2894    13.482302    13.395907    13.717595     2.579668    267.34512    3635.5034 
  238000     823.8573    -922.6634            0   -908.39348    -7553.548    13.482302    13.395907    13.717595    1.7541847    269.32609    3633.9506 
  239000    858.26029    -920.9717            0   -906.10589   -7253.9501    13.482302    13.395907    13.717595    2.7097239    271.26764    3631.8639 
  240000    915.21025   -923.21708            0   -907.36485   -6558.2703    13.482302    13.395907    13.717595     1.840709    273.20439    3629.7155 
  241000    805.04104   -922.99728            0   -909.05327   -7399.3871    13.482302    13.395907    13.717595      2.40515    275.14866    3627.6692 
  242000    740.57001   -921.82214            0   -908.99483   -5279.4439    13.482302    13.395907    13.717595    1.8521348    277.12114    3625.9935 
  243000    864.76303   -921.26522            0   -906.28678   -4406.1702    13.482302    13.395907    13.717595    2.1413983    279.05818    3623.8534 
  244000    716.77357   -921.91877            0   -909.50363   -5694.5288    13.482302    13.395907    13.717595    3.4516742    281.01636    3621.9886 
  245000    760.78082   -921.92983            0   -908.75245    -4715.785    13.482302    13.395907    13.717595    2.2110986    282.95229     3619.838 
  246000    797.30715    -920.5875            0   -906.77746   -5104.3469    13.482302    13.395907    13.717595    1.7635322    284.91851    3618.0748 
  247000    830.72761   -921.73837            0   -907.34945   -6313.0793    13.482302    13.395907    13.717595    2.6565292    286.92512     3616.818 
  248000    777.33799   -923.00743            0   -909.54327   -6774.6663    13.482302    13.395907    13.717595    1.9649702    288.93043    3615.5348 
  249000    802.05358   -920.18812            0   -906.29587   -3452.0204    13.482302    13.395907    13.717595    2.8618117      290.885    3613.6117 
  250000     775.2065   -920.94927            0   -907.52202   -5660.4388    13.482302    13.395907    13.717595    2.0068849    292.82159    3611.4662 
  251000    729.10135   -921.11948            0   -908.49081   -6156.1908    13.482302    13.395907    13.717595    2.6050459    294.77581    3609.5395 
  252000    814.60521   -918.93916            0   -904.82949   -2144.8098    13.482302    13.395907    13.717595     2.076285    296.79797    3608.4384 
  253000     780.3326    -921.0402            0   -907.52417   -3682.7087    13.482302    13.395907    13.717595    2.3201271    298.83969    3607.5615 
  254000    724.76063   -921.02767            0    -908.4742   -5054.2535    13.482302    13.395907    13.717595    1.8990112     300.7723    3605.3615 
  255000    923.95057   -920.86954            0   -904.86592   -5183.9869    13.482302    13.395907    13.717595    1.7555408    302.71218    3603.2515 
  256000    858.95746   -922.13834            0   -907.26046   -4882.8129    13.482302    13.395907    13.717595    2.0891706    304.69124    3601.6067 
  257000    853.86522   -922.96253            0   -908.17285   -7227.9661    13.482302    13.395907    13.717595    2.1396927    306.64392    3599.6481 
  258000    792.01868   -921.93287            0   -908.21443   -4959.2385    13.482302    13.395907    13.717595    2.1716522    308.60373    3597.7726 
  259000     880.9935    -921.2269            0   -905.96734    -2517.243    13.482302    13.395907    13.717595    2.9240248    310.56652    3595.9306 
  260000    749.84224   -922.20173            0   -909.21382   -6084.3513    13.482302    13.395907    13.717595    2.1356059    312.54245    3594.2382 
  261000    799.37511   -922.04186            0     -908.196   -5199.1623    13.482302    13.395907    13.717595    2.9892193    314.50657    3592.4074 
  262000    790.67733   -920.98433            0   -907.28912    -7825.442    13.482302    13.395907    13.717595    2.1826198    316.44545    3590.2885 
  263000    751.80313   -920.91592            0   -907.89404   -6389.7495    13.482302    13.395907    13.717595    2.5383291    318.39136    3588.2511 
  264000    807.83107   -923.03114            0   -909.03882   -7175.0822    13.482302    13.395907    13.717595    1.8156002    320.32431    3586.0697 
  265000    806.14475   -921.19612            0     -907.233   -5884.8158    13.482302    13.395907    13.717595    3.1872145    322.25894      3583.91 
  266000    767.45308   -920.44806            0   -907.15511   -5741.6718    13.482302    13.395907    13.717595    2.1851199    324.19711    3581.7922 
  267000    769.37134   -922.90378            0   -909.57761   -6147.6627    13.482302    13.395907    13.717595    2.5391962    326.13028    3579.6216 
  268000    842.55675   -921.66436            0   -907.07055   -6631.0457    13.482302    13.395907    13.717595    1.8361251     328.0672    3577.4947 
  269000    871.02224   -923.04978            0   -907.96292   -6874.7905    13.482302    13.395907    13.717595    2.3867807    330.00606    3575.3911 
  270000     776.9433   -923.12519            0   -909.66787   -8677.5641    13.482302    13.395907    13.717595    2.5529159    331.96359    3573.4904 
  271000    713.40123   -919.53072            0     -907.174   -3242.1221    13.482302    13.395907    13.717595     2.500533    333.90258    3571.3908 
  272000    730.08992   -921.29221            0   -908.64643    -5555.228    13.482302    13.395907    13.717595    2.0008662    335.83541    3569.2275 
  273000      787.501   -923.82823            0   -910.18803   -6265.2377    13.482302    13.395907    13.717595    2.2776391    337.77281    3567.1151 
  274000    813.18963   -921.92967            0   -907.84453    -5340.519    13.482302    13.395907    13.717595    2.2534666    339.71286    3565.0327 
  275000    823.84556   -921.09753            0   -906.82782   -4886.8925    13.482302    13.395907    13.717595    3.8336715    341.64376    3562.8563 
  276000    815.69241    -923.0776            0   -908.94911   -7553.2415    13.482302    13.395907    13.717595    1.9266106    343.64346    3561.3959 
  277000    824.56267   -922.82687            0   -908.54474   -6988.0855    13.482302    13.395907    13.717595    1.9384687    345.57785    3559.2566 
  278000    831.97212   -920.65074            0   -906.24027   -5246.7132    13.482302    13.395907    13.717595    2.7552836    347.51881    3557.1869 
  279000    817.05931   -922.23105            0   -908.07889   -5086.3912    13.482302    13.395907    13.717595     2.532045    349.49327    3555.4594 
  280000    709.63255   -920.17886            0   -907.88742   -5890.6599    13.482302    13.395907    13.717595    2.4451291    351.46708    3553.7227 
  281000    851.34427   -922.07848            0   -907.33246   -4818.9884    13.482302    13.395907    13.717595    2.1430974    353.40138    3551.5862 
  282000     768.3355     -921.824            0   -908.51577   -6430.4717    13.482302    13.395907    13.717595    2.8460815    355.33369    3549.4322 
  283000    740.83527   -920.78227            0   -907.95036   -3796.3363    13.482302    13.395907    13.717595    2.1667771    357.26759    3547.2962 
  284000    833.07402   -920.42477            0   -905.99521   -2849.9117    13.482302    13.395907    13.717595    2.6803031    359.20801    3545.2269 
  285000    713.07448   -921.94013            0   -909.58907   -7372.9711    13.482302    13.395907    13.717595    1.8796435    361.21425    3543.8046 
  286000    824.14898   -921.50412            0   -907.22915   -4150.2847    13.482302    13.395907    13.717595    2.3229818    363.15069    3541.6955 
  287000    807.15358   -921.51325            0   -907.53266    -5663.777    13.482302    13.395907    13.717595    2.0469317    365.08495     3539.567 
  288000    743.88544   -923.10687            0   -910.22213   -8697.3597    13.482302    13.395907    13.717595    2.0217529    367.02124    3537.4601 
  289000    828.03201     -921.437            0   -907.09477   -5328.7964    13.482302    13.395907    13.717595    2.3687647    368.97552    3535.5273 
  290000    762.75735   -921.34062            0   -908.12901   -4043.6645    13.482302    13.395907    13.717595    1.9900582    370.91273    3533.4318 
  291000    770.72388   -923.29068            0   -909.94108   -6760.2345    13.482302    13.395907    13.717595    1.8037887    372.84798    3531.3193 
  292000    813.67643   -921.96212            0   -907.86854   -6824.6089    13.482302    13.395907    13.717595    1.9704168     374.7982    3529.3497 
  293000    831.43041   -921.47085            0   -907.06976   -7241.0679    13.482302    13.395907    13.717595     2.091565    376.73492    3527.2539 
  294000    722.46381   -922.27611            0   -909.76242    -7012.627    13.482302    13.395907    13.717595    3.5630489    378.66906    3525.1357 
  295000    790.03206   -921.23986            0   -907.55583    -5333.053    13.482302    13.395907    13.717595    2.4057034    380.60015    3522.9911 
  296000    749.27697   -920.12197            0   -907.14385   -2684.9395    13.482302    13.395907    13.717595    2.5174678    382.55478    3521.0655 
  297000    739.80913   -922.65925            0   -909.84512   -7263.5975    13.482302    13.395907    13.717595     2.089372    384.49122    3518.9729 
  298000    663.01961   -921.08526            0   -909.60119   -5823.8338    13.482302    13.395907    13.717595    2.5550926    386.42408    3516.8494 
  299000    807.32489   -920.68594            0   -906.70238   -3606.6196    13.482302    13.395907    13.717595    2.0729936    388.35727    3514.7309 
  300000    725.47727   -921.74952            0   -909.18363    -5059.512    13.482302    13.395907    13.717595    2.3337078    390.29116    3512.6205 
  301000    784.06396   -921.44482            0   -907.86416   -4208.5637    13.482302    13.395907    13.717595    2.3572852    392.27854    3510.9905 
  302000     754.4189   -920.02087            0   -906.95369     -6370.52    13.482302    13.395907    13.717595    3.0166835    394.21296    3508.8857 
  303000    792.57324   -923.09701            0   -909.36896    -8942.273    13.482302    13.395907    13.717595    1.8615743     396.1554    3506.8535 
  304000    847.06231   -920.60063            0   -905.92878   -4560.3862    13.482302    13.395907    13.717595    2.5367454    398.08609    3504.7187 
  305000    772.95084    -920.9431            0   -907.55493   -5153.5855    13.482302    13.395907    13.717595    2.1647563    400.02186    3502.6304 
  306000    798.36774   -922.35579            0   -908.52738    -4862.712    13.482302    13.395907    13.717595    2.1305282    401.98253    3500.7605 
  307000    866.58458   -922.81246            0   -907.80247   -6644.9789    13.482302    13.395907    13.717595    2.2327985    403.98088     3499.216 
  308000    794.69976   -921.68326            0   -907.91838   -7934.3305    13.482302    13.395907    13.717595     2.092019    405.91717    3497.1325 
  309000    796.15787   -922.52694            0    -908.7368   -7316.7261    13.482302    13.395907    13.717595    2.3222909    407.85086    3495.0282 
  310000    807.34362   -921.80522            0   -907.82133   -3472.7461    13.482302    13.395907    13.717595    2.7378439    409.83077    3493.3194 
  311000     881.0742   -921.32043            0   -906.05947   -6843.3641    13.482302    13.395907    13.717595    1.9098789    411.76638    3491.2325 
  312000    736.17276   -922.31791            0   -909.56676   -8064.2546    13.482302    13.395907    13.717595    1.7105513     413.7018    3489.1454 
  313000    853.03319    -921.8829            0   -907.10763   -7798.4317    13.482302    13.395907    13.717595    2.4952077    415.63811    3487.0671 
  314000    815.64831    -921.7625            0   -907.63477   -7041.0273    13.482302    13.395907    13.717595    2.1083792    417.66462     3485.743 
  315000    716.66321   -923.38928            0   -910.97606   -6611.0898    13.482302    13.395907    13.717595    1.9310364    419.60177    3483.6705 
  316000    751.77583   -920.57696            0   -907.55556   -4281.4115    13.482302    13.395907    13.717595    2.6755048     421.5356    3481.5718 
  317000    948.72555   -923.52932            0   -907.09658   -4949.5046    13.482302    13.395907    13.717595    2.0745504    423.54364    3480.0844 
  318000    756.45518   -923.30955            0    -910.2071        -8972    13.482302    13.395907    13.717595    2.2841564    425.48444    3478.0426 
  319000    835.88631   -922.50568            0   -908.02741   -6425.7326    13.482302    13.395907    13.717595    2.2489747     427.4179    3475.9419 
  320000    803.85125    -921.2542            0    -907.3308   -4541.5464    13.482302    13.395907    13.717595    2.3286261    429.35299     3473.856 
  321000    758.23508   -920.88868            0    -907.7554   -7240.4881    13.482302    13.395907    13.717595    2.3601915    431.28707    3471.7634 
  322000    764.77813   -922.49269            0   -909.24608   -5535.9167    13.482302    13.395907    13.717595    2.5715674    433.21869    3469.6524 
  323000    790.32776   -919.62719            0   -905.93804   -1723.6642    13.482302    13.395907    13.717595    2.0856667    435.22281    3468.1208 
  324000    750.41895   -920.70364            0   -907.70574   -7353.6178    13.482302    13.395907    13.717595    2.2644601    437.16527     3466.096 
  325000    799.08745   -921.86402            0   -908.02314   -7593.2914    13.482302    13.395907    13.717595    2.2151234    439.09984    3464.0099 
  326000    864.45204    -921.2239            0   -906.25085   -4247.9858    13.482302    13.395907    13.717595    2.3197473    441.04281    3461.9909 
  327000    908.82241   -921.89014            0   -906.14855   -7468.4755    13.482302    13.395907    13.717595    2.1481342    442.97926    3459.9217 
  328000    795.49264    -921.9376            0   -908.15898   -5852.2583    13.482302    13.395907    13.717595    1.9779574    444.93619    3458.0129 
  329000    841.60398   -922.54494            0   -907.96763   -7189.1902    13.482302    13.395907    13.717595    2.5759843    446.87575    3455.9692 
  330000    772.86908    -919.4182            0   -906.03144   -3917.6356    13.482302    13.395907    13.717595    3.4310261    448.81953     3453.959 
  331000    758.16003    -922.2858            0   -909.15382   -5530.9067    13.482302    13.395907    13.717595    2.0219539    450.75776    3451.9069 
  332000    789.12973   -921.83923            0   -908.17083   -7389.7489    13.482302    13.395907    13.717595    2.3076059    452.71148    3449.9737 
  333000    862.20419   -922.22933            0   -907.29521   -6188.8653    13.482302    13.395907    13.717595    2.2651617    454.65719    3447.9796 
  334000    773.58441   -921.56093            0   -908.16178   -3664.4709    13.482302    13.395907    13.717595    1.9973202    456.59292    3445.9107 
  335000    641.63588   -921.75212            0   -910.63844   -8153.5793    13.482302    13.395907    13.717595    2.6411914    458.52955    3443.8496 
  336000    826.32159   -921.60805            0   -907.29545   -6815.1082    13.482302    13.395907    13.717595    2.3806132    460.46237    3441.7611 
  337000    812.54116   -921.97048            0   -907.89656   -7766.5904    13.482302    13.395907    13.717595    2.1580584    462.41067    3439.7891 
  338000     755.6334   -923.82307            0   -910.73485   -6768.7456    13.482302    13.395907    13.717595    1.6892311    464.34789    3437.7352 
  339000    785.18247   -920.70843            0    -907.1084   -6097.1752    13.482302    13.395907    13.717595    2.5568349    466.29841    3435.7804 
  340000    791.26302   -921.53545            0   -907.83009   -6365.3373    13.482302    13.395907    13.717595    2.8190992    468.22864    3433.6767 
  341000    765.81448   -923.10956            0   -909.84499   -7244.7561    13.482302    13.395907    13.717595    2.5442915    470.17391    3431.6843 
  342000      889.377   -921.51615            0   -906.11138   -3432.7473    13.482302    13.395907    13.717595    2.5325912    472.11412    3429.6555 
  343000     750.2098   -921.35532            0   -908.36104   -5325.4195    13.482302    13.395907    13.717595    2.3069208    474.04925    3427.5907 
  344000    789.75302   -922.33536            0   -908.65616   -8050.5589    13.482302    13.395907    13.717595    2.6496237    475.98222    3425.5114 
  345000     843.7477   -920.02377            0   -905.40933   -4226.4239    13.482302    13.395907    13.717595    2.0305398    477.92357    3423.4933 
  346000    759.68402   -921.81171            0   -908.65333   -7152.6784    13.482302    13.395907    13.717595    2.5643056    479.85833    3421.4289 
  347000    804.85563   -921.53586            0   -907.59507   -6312.3846    13.482302    13.395907    13.717595    2.2201904    481.78972    3419.3416 
  348000    832.30821    -920.3292            0    -905.9129   -5092.1467    13.482302    13.395907    13.717595    2.6014173    483.72612     3417.291 
  349000    728.09948   -920.62441            0   -908.01311   -5787.0798    13.482302    13.395907    13.717595    2.5655545    485.65942    3415.2194 
  350000    778.46591     -921.871            0    -908.3873   -6669.9828    13.482302    13.395907    13.717595    2.2554918    487.59805    3413.1863 
  351000    859.71089   -920.82898            0   -905.93804   -4679.1265    13.482302    13.395907    13.717595    2.5064842    489.54299    3411.1979 
  352000    844.75998   -923.27132            0   -908.63935   -7837.7335    13.482302    13.395907    13.717595    2.1896159     491.4803     3409.157 
  353000    758.04063   -921.57441            0   -908.44449   -7265.1783    13.482302    13.395907    13.717595    3.1208913    493.43893    3407.2641 
  354000    832.53427   -921.37033            0   -906.95012   -5827.6446    13.482302    13.395907    13.717595    2.3706464    495.37406    3405.2091 
  355000    787.17986   -922.06977            0   -908.43514   -6032.8902    13.482302    13.395907    13.717595    3.5993085    497.30849    3403.1503 
  356000    758.86814   -921.99507            0   -908.85082   -6049.7192    13.482302    13.395907    13.717595    1.7715545    499.24162    3401.0835 
  357000    881.30197   -921.44676            0   -906.18185   -4254.5546    13.482302    13.395907    13.717595    2.8374199    501.17662    3399.0305 
  358000    706.57451   -922.07964            0   -909.84117   -4887.7689    13.482302    13.395907    13.717595    2.3447796    503.10919     3396.962 
  359000    750.54651   -921.42385            0   -908.42374   -3245.1666    13.482302    13.395907    13.717595    2.2733881    505.05362    3394.9744 
  360000    810.08067   -920.93056            0   -906.89927   -5884.5017    13.482302    13.395907    13.717595    1.9207907    506.98888    3392.9256 
  361000    675.28199   -922.19361            0   -910.49714   -6570.8907    13.482302    13.395907    13.717595     2.334376    508.94559    3391.0206 
  362000    846.82331   -922.70167            0   -908.03396   -6479.1202    13.482302    13.395907    13.717595    2.3493825    510.88603    3389.0074 
  363000    828.04536   -921.81815            0   -907.47569   -5713.5043    13.482302    13.395907    13.717595    2.1413501    512.81883    3386.9441 
  364000     732.6267   -923.02103            0   -910.33131   -9269.2209    13.482302    13.395907    13.717595    2.0538511    514.76647    3384.9795 
  365000    769.66341   -921.16585            0   -907.83461   -7808.5427    13.482302    13.395907    13.717595    2.3241743    516.70504    3382.9556 
  366000    813.54684   -921.53123            0    -907.4399   -7448.1819    13.482302    13.395907    13.717595    1.9176229     518.6421    3380.9226 
  367000    690.20947   -922.32215            0   -910.36713   -7309.9242    13.482302    13.395907    13.717595    3.3929541    520.57901    3378.8892 
  368000      807.011   -921.61736            0   -907.63924   -6405.0702    13.482302    13.395907    13.717595    2.2594336    522.52518    3376.9165 
  369000    830.02944   -921.49035            0   -907.11352   -3288.0735    13.482302    13.395907    13.717595    3.0815739    524.45891    3374.8638 
  370000    747.42992   -922.68966            0   -909.74353   -5814.8855    13.482302    13.395907    13.717595    2.3900688    526.40655    3372.9012 
  371000    813.47008   -920.94732            0   -906.85732   -3815.3897    13.482302    13.395907    13.717595     1.898165    528.35293    3370.9307 
  372000    758.55823   -920.32519            0   -907.18631   -5119.2433    13.482302    13.395907    13.717595    2.8900781    530.28735    3368.8844 
  373000    782.98388   -922.90733            0   -909.34538   -7172.0185    13.482302    13.395907    13.717595    2.2962727    532.24081    3366.9593 
  374000    943.58786   -921.60683            0   -905.26308   -5382.6264    13.482302    13.395907    13.717595    2.2497322    534.17369    3364.9043 
  375000     797.2887   -922.08547            0   -908.27574   -6832.2703    13.482302    13.395907    13.717595    2.4391672     536.1306     3363.001 
  376000    789.12209   -921.90612            0   -908.23785   -5792.0098    13.482302    13.395907    13.717595    1.9704648    538.06379    3360.9492 
  377000    923.84008   -921.38446            0   -905.38275   -5999.9314    13.482302    13.395907    13.717595    2.1942409    540.00778    3358.9654 
  378000    829.95869   -922.27484            0   -907.89924   -7121.9232    13.482302    13.395907    13.717595    2.2465022    541.94448    3356.9367 
  379000    824.80844   -922.12359            0    -907.8372   -5498.0116    13.482302    13.395907    13.717595     2.551892    543.89689    3355.0055 
  380000    829.89053   -919.33244            0   -904.95802   -4440.6263    13.482302    13.395907    13.717595    2.2467543    545.85274    3353.0954 
  381000    808.47011   -921.96305            0   -907.95965   -4800.2059    13.482302    13.395907    13.717595    2.4532508    547.78798    3351.0588 
  382000    846.13698    -922.6662            0   -908.01038   -6673.8059    13.482302    13.395907    13.717595    1.9254726    549.72339    3349.0241 
  383000    779.06916    -919.9684            0   -906.47425   -5863.2892    13.482302    13.395907    13.717595    2.9851118      551.715     3347.331 
  384000    791.10933   -921.74754            0   -908.04485   -4426.3591    13.482302    13.395907    13.717595    2.4320778    553.69397    3345.5594 
  385000    812.88976   -922.93536            0   -908.85541   -7096.1817    13.482302    13.395907    13.717595    2.2877965     555.6262     3343.505 
  386000    851.17014   -921.85482            0   -907.11183   -8181.2694    13.482302    13.395907    13.717595    2.0160162    557.69452    3342.2671 
  387000    881.50555    -923.3156            0   -908.04716   -6473.4533    13.482302    13.395907    13.717595    2.2909636    559.63319    3340.2497 
  388000    765.60136   -922.70044            0   -909.43957   -8106.5189    13.482302    13.395907    13.717595    1.7503355    561.58165    3338.2909 
  389000    893.08075   -921.91153            0   -906.44261   -6298.2488    13.482302    13.395907    13.717595    2.3594127       563.54    3336.3908 
  390000    803.88491   -921.95271            0   -908.02873   -6998.7327    13.482302    13.395907    13.717595    1.9634573    565.49369    3334.4628 
  391000    739.06116   -921.91043            0   -909.10926     -5790.43    13.482302    13.395907    13.717595    1.9565437    567.44232    3332.5049 
  392000    798.39772   -921.37566            0   -907.54672   -1946.3331    13.482302    13.395907    13.717595    2.4430804    569.37801    3330.4714 
  393000    847.56408   -920.55351            0   -905.87297   -6199.4969    13.482302    13.395907    13.717595    2.2324851    571.38464    3328.8518 
  394000    780.79007   -922.16268            0   -908.63872   -6896.2033    13.482302    13.395907    13.717595    1.8635501    573.32193    3326.8273 
  395000    779.60705   -921.56785            0   -908.06439   -7648.8382    13.482302    13.395907    13.717595      2.30608    575.25694    3324.7901 
  396000    824.63353   -920.27443            0   -905.99107   -4064.2613    13.482302    13.395907    13.717595    2.9320136    577.19076    3322.7468 
  397000    805.96807   -921.94162            0   -907.98156   -7353.8417    13.482302    13.395907    13.717595    2.7027568    579.18696    3321.0619 
  398000    755.00099   -921.68928            0   -908.61201    -5175.586    13.482302    13.395907    13.717595    2.4100257     581.1228    3319.0302 
  399000    864.65572   -920.49355            0   -905.51697   -4023.8849    13.482302    13.395907    13.717595    2.1577587    583.05606    3316.9845 
  400000    759.24612   -921.85885            0   -908.70805    -5543.736    13.482302    13.395907    13.717595    2.4310506    584.99329     3314.962 
  401000      702.529   -920.18798            0   -908.01958   -6331.2087    13.482302    13.395907    13.717595    2.9367074    586.92858    3312.9291 
  402000    893.40032   -920.66414            0   -905.18968   -3981.6619    13.482302    13.395907    13.717595    2.8246508    588.93604    3311.3026 
  403000    868.36991    -921.5835            0   -906.54259   -6804.4793    13.482302    13.395907    13.717595    2.7859387    590.87593    3309.2952 
  404000    752.44604   -921.44908            0   -908.41607   -5048.4324    13.482302    13.395907    13.717595    2.8488399    592.81606    3307.2896 
  405000    788.54741   -920.89536            0   -907.23704   -6500.7393    13.482302    13.395907    13.717595     2.109934    594.75242    3305.2635 
  406000    861.92232   -920.72766            0   -905.79842   -4267.6159    13.482302    13.395907    13.717595    2.1835115    596.69118    3303.2512 
  407000    750.99381   -921.99624            0   -908.98838   -8223.1313    13.482302    13.395907    13.717595    2.2647351    598.64996    3301.3498 
  408000    851.72036   -921.39321            0   -906.64068   -6404.7327    13.482302    13.395907    13.717595    2.1017314    600.65399    3299.6966 
  409000    765.79234   -919.26047            0   -905.99629   -5033.4642    13.482302    13.395907    13.717595    2.6615867    602.61297    3297.7946 
  410000    743.73463   -922.18541            0   -909.30329   -4434.3714    13.482302    13.395907    13.717595     1.877451     604.6082    3296.0899 
  411000    808.02746    -920.7147            0   -906.71897   -6728.0361    13.482302    13.395907    13.717595    2.1721653    606.60618    3294.3982 
  412000    796.88957   -920.67813            0   -906.87531   -4298.1039    13.482302    13.395907    13.717595     2.005054     608.5453    3292.3861 
  413000    798.99868   -921.64945            0    -907.8101   -5968.3082    13.482302    13.395907    13.717595    1.8951196    610.48642    3290.3853 
  414000    750.37921   -920.96936            0   -907.97215   -6656.8676    13.482302    13.395907    13.717595    2.4637556     612.4328     3288.413 
  415000    900.03736   -923.01504            0   -907.42562   -7112.0845    13.482302    13.395907    13.717595    1.9285009    614.42009    3286.6599 
  416000    759.46145   -920.61199            0   -907.45747   -5785.9834    13.482302    13.395907    13.717595    2.0002351    616.36191    3284.6628 
  417000    740.99033   -922.64808            0   -909.81349   -6718.1202    13.482302    13.395907    13.717595    2.3435873    618.30061    3282.6496 
  418000    863.10532   -921.11994            0   -906.17021    -7040.165    13.482302    13.395907    13.717595    2.3491935    620.29747    3280.9445 
  419000    796.01899   -921.88775            0   -908.10001   -6470.5749    13.482302    13.395907    13.717595     2.665613    622.23547    3278.9274 
  420000    723.75128   -921.23753            0   -908.70154   -4956.9008    13.482302    13.395907    13.717595    2.1728659    624.17257     3276.906 
  421000    793.75304   -921.52565            0   -907.77717   -5947.7668    13.482302    13.395907    13.717595     2.386799    626.10655    3274.8689 
  422000    810.39449   -921.24137            0   -907.20464   -3955.9614    13.482302    13.395907    13.717595    3.6305554    628.04485    3272.8549 
  423000    838.84979   -922.28924            0   -907.75964   -6083.4335    13.482302    13.395907    13.717595     2.176911     630.0003    3270.9304 
  424000    803.18779   -923.48116            0   -909.56926    -6932.827    13.482302    13.395907    13.717595     2.350016    631.99588    3269.2132 
  425000     803.5294   -920.04301            0   -906.12519   -1541.5227    13.482302    13.395907    13.717595     2.696912    633.93297     3267.193 
  426000    860.82231   -922.90921            0   -907.99903   -7179.1448    13.482302    13.395907    13.717595    2.4539111    635.86738    3265.1595 
  427000    752.79366   -921.51162            0   -908.47259   -4657.1387    13.482302    13.395907    13.717595    3.0015297    637.80299    3263.1327 
  428000    888.85076   -923.04002            0   -907.64436   -7253.1264    13.482302    13.395907    13.717595    1.8599177    639.73961    3261.1117 
  429000    865.62158   -921.20841            0    -906.2151   -4967.8307    13.482302    13.395907    13.717595    2.5675915    641.72425     3259.335 
  430000    803.67102   -922.25619            0   -908.33592   -6428.5582    13.482302    13.395907    13.717595    2.1412106    643.66398    3257.3298 
  431000    717.04728   -921.11653            0   -908.69666   -5209.6966    13.482302    13.395907    13.717595    2.5718658    645.60169    3255.3149 
  432000    803.86621   -919.57468            0   -905.65103   -4435.5042    13.482302    13.395907    13.717595    2.0282764    647.55477    3253.3776 
  433000    801.01668   -922.07244            0   -908.19815   -4585.8463    13.482302    13.395907    13.717595     2.116704    649.50803    3251.4411 
  434000    799.39132   -921.65795            0   -907.81181   -8121.3128    13.482302    13.395907    13.717595    2.2056719     651.4445    3249.4208 
  435000    839.86101   -919.89655            0   -905.34943   -3869.2211    13.482302    13.395907    13.717595    2.0125832    653.38074    3247.3998 
  436000    837.64595   -922.75521            0   -908.24646   -8001.2723    13.482302    13.395907    13.717595     2.328403    655.32059    3245.3972 
  437000    779.07557   -921.56202            0   -908.06776   -4212.2265    13.482302    13.395907    13.717595      2.33966    657.25704    3243.3782 
  438000    915.75257   -921.36597            0   -905.50435   -3206.8537    13.482302    13.395907    13.717595    1.9937653    659.26796    3241.7259 
  439000    732.16812   -921.53051            0   -908.84872   -5352.7684    13.482302    13.395907    13.717595    2.2753349    661.20457    3239.7074 
  440000    817.68024   -921.61022            0    -907.4473   -6236.4215    13.482302    13.395907    13.717595    2.5783976    663.13807    3237.6741 
  441000    936.30606   -920.22748            0   -904.00986   -2925.9665    13.482302    13.395907    13.717595    2.7955085    665.07602    3235.6631 
  442000    808.45955   -921.32077            0   -907.31755   -6381.1046    13.482302    13.395907    13.717595    2.0798397    667.01578    3233.6613 
  443000    746.90454   -921.21895            0   -908.28192   -5152.5272    13.482302    13.395907    13.717595    2.5601444    668.97368    3231.7475 
  444000    935.23344   -922.25004            0   -906.05099   -5850.8698    13.482302    13.395907    13.717595    1.6094281    670.90734    3229.7168 
  445000    764.43258   -921.33297            0   -908.09234   -7978.0517    13.482302    13.395907    13.717595    1.9238534    672.84504    3227.7059 
  446000    758.44356    -921.7071            0    -908.5702   -9331.3566    13.482302    13.395907    13.717595    2.1239284    674.78147    3225.6895 
  447000    825.50739   -920.32057            0   -906.02207   -4720.1063    13.482302    13.395907    13.717595    2.2022106    676.75747     3223.862 
  448000    697.73771   -921.86188            0   -909.77646   -5682.3533    13.482302    13.395907    13.717595    2.2983089    678.69629    3221.8571 
  449000     859.0434   -922.47448            0   -907.59511   -6102.1414    13.482302    13.395907    13.717595    1.9384747    680.63193    3219.8376 
  450000    829.96015   -921.42209            0   -907.04646   -2917.8926    13.482302    13.395907    13.717595    2.5871629    682.56979     3217.829 
  451000    724.81117   -923.46434            0   -910.90998   -7693.5291    13.482302    13.395907    13.717595    1.8177921    684.50494    3215.8081 
  452000     780.2178   -922.21179            0   -908.69774   -6037.1068    13.482302    13.395907    13.717595    2.1960847      686.468    3213.9184 
  453000    829.28996   -921.11601            0     -906.752   -2474.6297    13.482302    13.395907    13.717595    2.8240314    688.42745    3212.0114 
  454000    736.03322   -922.43681            0   -909.68808   -5017.7719    13.482302    13.395907    13.717595    2.3190694    690.36207    3209.9886 
  455000     712.3577   -920.90807            0   -908.56942   -5974.9122    13.482302    13.395907    13.717595    2.4890473    692.29398    3207.9538 
  456000    774.75445   -920.86563            0   -907.44622   -5047.5493    13.482302    13.395907    13.717595     2.435895    694.23148    3205.9454 
  457000    755.21221   -922.30746            0   -909.22654    -7558.234    13.482302    13.395907    13.717595    2.1287807    696.16869     3203.936 
  458000    757.40435   -923.13576            0   -910.01686   -8629.7257    13.482302    13.395907    13.717595    2.8011269    698.11357    3201.9622 
  459000    754.15359   -920.41673            0   -907.35414   -2975.7632    13.482302    13.395907    13.717595     2.652776    700.04745    3199.9383 
  460000    835.20039   -922.49422            0   -908.02783   -6272.7602    13.482302    13.395907    13.717595    3.9048988    701.99275     3197.967 
  461000    720.28883   -922.78672            0   -910.31069   -6559.8429    13.482302    13.395907    13.717595    1.6281089    703.95038    3196.0517 
  462000    882.07541   -921.91568            0   -906.63737   -4807.3577    13.482302    13.395907    13.717595     2.322683    705.88905    3194.0505 
  463000    763.75597   -921.29238            0   -908.06347   -6936.3912    13.482302    13.395907    13.717595    1.8323967    707.83059    3192.0625 
  464000    709.44144   -922.36342            0   -910.07528   -8949.4545    13.482302    13.395907    13.717595    2.0697954    709.76736    3190.0533 
  465000    773.73461   -919.62367            0   -906.22192   -5286.6268    13.482302    13.395907    13.717595    1.9063148    711.70849    3188.0641 
  466000    809.25124   -922.34587            0   -908.32895    -9362.396    13.482302    13.395907    13.717595    2.0670209    713.64258    3186.0437 
  467000    813.34116   -922.83842            0   -908.75065   -5995.1858    13.482302    13.395907    13.717595     2.221394    715.60848    3184.1652 
  468000    835.29861   -921.47564            0   -907.00755   -5672.2759    13.482302    13.395907    13.717595    2.1854539    717.54668    3182.1636 
  469000    809.96332   -922.17643            0   -908.14717   -7603.9599    13.482302    13.395907    13.717595    2.1178086    719.48497    3180.1626 
  470000    819.48576   -923.16637            0   -908.97217   -6988.2581    13.482302    13.395907    13.717595    2.2754088    721.42214     3178.157 
  471000    899.40315   -921.31409            0   -905.73566   -5213.5084    13.482302    13.395907    13.717595    1.8869517    723.35819    3176.1469 
  472000    798.26871    -922.3289            0    -908.5022   -7166.8574    13.482302    13.395907    13.717595    1.9975718    725.35465    3174.4015 
  473000    780.18625   -921.56567            0   -908.05218   -5866.2563    13.482302    13.395907    13.717595    2.2898371    727.32292    3172.5319 
  474000    863.69545    -921.0581            0   -906.09815   -3517.6711    13.482302    13.395907    13.717595    2.5828645    729.25921    3170.5227 
  475000    826.12022   -921.21648            0   -906.90736   -8313.4721    13.482302    13.395907    13.717595    2.3391455    731.19613    3168.5166 
  476000    818.84759   -923.12373            0   -908.94059   -8294.8243    13.482302    13.395907    13.717595    2.0323862    733.21386    3166.8599 
  477000    830.14341    -919.7024            0    -905.3236   -2912.2255    13.482302    13.395907    13.717595    2.8243011    735.14998    3164.8499 
  478000    789.01009   -920.61036            0   -906.94403   -3491.6941    13.482302    13.395907    13.717595    2.3195134    737.08783    3162.8478 
  479000     795.3366    -922.3416            0   -908.56569   -8076.7887    13.482302    13.395907    13.717595     1.790157    739.02596    3160.8472 
  480000     792.3025   -920.29668            0   -906.57332   -5019.7238    13.482302    13.395907    13.717595    2.4153473    740.96224     3158.839 
  481000    801.04186   -921.08716            0   -907.21243   -6733.2429    13.482302    13.395907    13.717595    1.9704385    742.91403    3156.8972 
[...]
 1980000    777.25186   -921.78652            0   -908.32385   -4150.1139    13.482302    13.395907    13.717595    1.9746476    3652.9226    233.16527 
 1981000    808.48197   -921.54508            0   -907.54148   -6472.8839    13.482302    13.395907    13.717595    2.3519461    3654.8706    231.22254 
 1982000     917.0988   -920.44795            0   -904.56301   -2471.0126    13.482302    13.395907    13.717595    3.7535117     3656.808    229.27914 
 1983000    679.68671   -919.89151            0   -908.11875   -6691.9306    13.482302    13.395907    13.717595    2.0720792    3658.7548    227.33633 
 1984000    773.17189   -921.28376            0   -907.89176   -7109.9174    13.482302    13.395907    13.717595    2.2600259    3660.7199    225.39464 
 1985000    927.11496    -921.1315            0   -905.07307   -3304.4425    13.482302    13.395907    13.717595    2.8618657    3662.6658    223.45176 
 1986000    806.67147    -922.6273            0   -908.65505   -7557.5782    13.482302    13.395907    13.717595    2.1875534     3664.626    221.50974 
 1987000    852.14459   -922.59536            0   -907.83549   -4981.3936    13.482302    13.395907    13.717595    1.9691357    3666.5623    219.56627 
 1988000    824.77269   -918.89409            0   -904.60832   -5136.3106    13.482302    13.395907    13.717595    3.0930109    3668.5146    217.62375 
 1989000    798.43152   -921.75409            0   -907.92457   -4768.1386    13.482302    13.395907    13.717595    2.5453894    3670.5365    215.68531 
 1990000    808.06326    -922.4123            0   -908.41595   -5336.1357    13.482302    13.395907    13.717595    1.7059261    3672.4701    213.74165 
 1991000    894.82535   -921.08734            0   -905.58819   -4391.5594    13.482302    13.395907    13.717595     3.209253    3674.4027    211.79793 
 1992000    652.01638   -920.66707            0   -909.37359   -6900.0306    13.482302    13.395907    13.717595    1.8553726    3676.3367    209.85432 
 1993000    885.52088   -922.74415            0   -907.40616   -6894.0481    13.482302    13.395907    13.717595    1.9837458     3678.269    207.91061 
 1994000    785.07143   -920.72302            0   -907.12491   -4142.0991    13.482302    13.395907    13.717595     2.178899    3680.2033    205.96702 
 1995000    775.89338   -924.67003            0   -911.23089   -9805.7574    13.482302    13.395907    13.717595    2.0472801    3682.1351    204.02332 
 1996000    655.80171   -924.83814            0    -913.4791   -10516.914    13.482302    13.395907    13.717595    1.4866426    3684.0664    202.07959 
 1997000     728.2291   -920.75046            0    -908.1369   -5963.7515    13.482302    13.395907    13.717595    2.4242357    3685.9975    200.13587 
 1998000    795.65925   -919.99796            0   -906.21646   -3576.0532    13.482302    13.395907    13.717595    2.5242291    3687.9326    198.19237 
 1999000    723.60205   -921.59991            0    -909.0665   -6616.6855    13.482302    13.395907    13.717595    3.0740969    3689.8652    196.24876 
 2000000    876.75177   -921.79383            0   -906.60773   -3277.0553    13.482302    13.395907    13.717595    2.3376999     3691.796    194.30505 
 2001000    810.88764   -920.60455            0   -906.55928   -7265.3238    13.482302    13.395907    13.717595    2.6268746     3693.727    192.36138 
 2002000    732.07823   -921.35067            0   -908.67044   -5703.2966    13.482302    13.395907    13.717595    2.7882128     3695.675    190.41859 
 2003000    873.99507   -920.78722            0   -905.64888   -3742.0014    13.482302    13.395907    13.717595    2.1680058    3697.6069    188.47497 
 2004000    882.78955   -921.40945            0   -906.11878   -3807.0651    13.482302    13.395907    13.717595    2.5087591    3699.5426    186.53156 
 2005000    795.99725   -922.22236            0   -908.43501   -6735.7006    13.482302    13.395907    13.717595    3.2940391    3701.4756    184.58802 
 2006000    820.83092   -920.77416            0   -906.55666    -1464.239    13.482302    13.395907    13.717595    2.4767407    3703.4093    182.64453 
 2007000    865.60548   -921.71337            0   -906.72034   -4606.6797    13.482302    13.395907    13.717595    2.4343212    3705.3467    180.70123 
 2008000    795.88345   -922.10888            0   -908.32349   -6041.0905    13.482302    13.395907    13.717595    2.6420707    3707.2803    178.75775 
 2009000    849.59019   -921.67529            0   -906.95966   -9282.4885    13.482302    13.395907    13.717595    2.1937838    3709.2151    176.81434 
 2010000    791.03051    -919.6808            0   -905.97948   -3402.4831    13.482302    13.395907    13.717595    2.1290127    3711.1502    174.87095 
 2011000    784.31812    -922.3582            0   -908.77314   -7091.7807    13.482302    13.395907    13.717595    2.4423345    3713.0842    172.92752 
 2012000    886.27231   -921.92734            0   -906.57634   -3497.1424    13.482302    13.395907    13.717595    2.3147749    3715.0163    170.98401 
 2013000    845.11858   -921.21474            0   -906.57656   -3713.0366    13.482302    13.395907    13.717595    2.3610726    3716.9545    169.04079 
 2014000    778.40098   -922.63408            0    -909.1515    -7332.413    13.482302    13.395907    13.717595     1.613841    3718.8876    167.09735 
 2015000    782.23453   -919.78856            0   -906.23959   -4345.0503    13.482302    13.395907    13.717595    2.2067878    3720.8196    165.15387 
 2016000    724.69889    -921.9099            0   -909.35749   -6173.9037    13.482302    13.395907    13.717595    2.8356316    3722.7537     163.2105 
 2017000    825.95026   -922.75649            0   -908.45032   -7977.9206    13.482302    13.395907    13.717595    2.4881438     3724.687     161.2671 
 2018000    774.99294   -919.97074            0    -906.5472   -2195.7632    13.482302    13.395907    13.717595    2.8718068    3726.6216    159.32376 
 2019000    687.84949   -922.04926            0   -910.13512   -6388.1186    13.482302    13.395907    13.717595     2.110756    3728.5536    157.38032 
 2020000    835.82417   -922.75763            0   -908.28043    -6720.882    13.482302    13.395907    13.717595     1.804068    3730.4882    155.43701 
 2021000    845.38801   -921.87167            0   -907.22882   -8112.6213    13.482302    13.395907    13.717595    2.5435073    3732.4238    153.49374 
 2022000    721.81818   -922.57243            0   -910.06992   -9570.5831    13.482302    13.395907    13.717595    2.1232256    3734.3571    151.55039 
 2023000    714.05809   -921.62034            0   -909.25224   -5333.8194    13.482302    13.395907    13.717595    3.0215345    3736.2909    149.60707 
 2024000    827.30639   -921.59811            0   -907.26845   -4810.8128    13.482302    13.395907    13.717595    2.8273626    3738.2234    147.66371 
 2025000    721.59012   -920.51427            0   -908.01571   -7819.3501    13.482302    13.395907    13.717595    2.0170132    3740.1575    145.72042 
 2026000    786.88489   -923.20881            0   -909.57929   -8373.3711    13.482302    13.395907    13.717595     2.751573     3742.095    143.77728 
 2027000    851.10271   -921.42196            0   -906.68013   -5470.8976    13.482302    13.395907    13.717595    2.0075083    3744.0362    141.83427 
 2028000    801.39508    -922.2746            0   -908.39375   -7609.1481    13.482302    13.395907    13.717595    2.4546216     3745.974    139.89115 
 2029000    665.84383   -922.93602            0   -911.40304   -6264.6641    13.482302    13.395907    13.717595    2.3734426    3747.9059    137.94781 
 2030000    739.01595   -921.05868            0   -908.25829   -6824.6877    13.482302    13.395907    13.717595    2.3145161    3749.8387    136.00451 
 2031000    788.10575   -920.77161            0   -907.12094   -3176.9421    13.482302    13.395907    13.717595    2.3817001    3751.7701    134.06118 
 2032000    833.91157   -923.81276            0    -909.3687   -8865.7334    13.482302    13.395907    13.717595    2.1079933    3753.7048    132.11798 
 2033000     838.0551   -922.81663            0    -908.3008   -5371.8486    13.482302    13.395907    13.717595    2.4682759    3755.6372     130.1747 
 2034000    818.50489   -921.19905            0   -907.02185   -5627.6646    13.482302    13.395907    13.717595    3.4363901    3757.5722    128.23152 
 2035000    715.69654   -921.88725            0   -909.49078   -6483.6149    13.482302    13.395907    13.717595    1.3908057    3759.5126    126.28854 
 2036000    811.80236   -920.20786            0   -906.14675    -5137.522    13.482302    13.395907    13.717595    2.6014816    3761.4538    124.34558 
 2037000    809.78711   -921.86819            0   -907.84198   -5162.2354    13.482302    13.395907    13.717595    2.3500636    3763.3932    122.40257 
 2038000    839.95016     -923.352            0   -908.80334   -5627.3385    13.482302    13.395907    13.717595    2.5779102    3765.3275    120.45939 
 2039000    786.90287   -920.52323            0    -906.8934   -3424.1134    13.482302    13.395907    13.717595    2.3332965    3767.2643    118.51631 
 2040000    957.74742   -920.67213            0   -904.08312   -4339.4929    13.482302    13.395907    13.717595     2.296884    3769.1979    116.57313 
 2041000    766.59144   -921.58024            0   -908.30222   -7977.9338    13.482302    13.395907    13.717595    2.0706742    3771.1294     114.6299 
 2042000     731.1159   -920.74936            0   -908.08581   -7446.4565    13.482302    13.395907    13.717595    2.3229581    3773.0631    112.68675 
 2043000    855.07243   -920.32967            0   -905.51908   -5272.5726    13.482302    13.395907    13.717595     2.499863    3775.0056    110.74386 
 2044000    749.62677   -921.56294            0   -908.57876   -7538.4944    13.482302    13.395907    13.717595    2.1574297    3776.9388    108.80071 
 2045000    717.72548   -919.81011            0   -907.37848   -2253.6062    13.482302    13.395907    13.717595    2.4500523    3778.8727    106.85758 
 2046000    858.85786    -921.6173            0   -906.74115   -5015.5148    13.482302    13.395907    13.717595    2.2074178    3780.8034    104.91438 
 2047000    666.20402   -921.23107            0   -909.69184   -6933.8667    13.482302    13.395907    13.717595    2.7013638    3782.7369    102.97127 
 2048000      836.431   -921.34972            0   -906.86202   -4631.8831    13.482302    13.395907    13.717595    2.2237238    3784.6711    101.02818 
 2049000    838.65975   -922.05131            0     -907.525   -8949.6574    13.482302    13.395907    13.717595    2.0407459    3786.6088    99.085197 
 2050000    654.84171   -921.40123            0   -910.05881   -6028.1328    13.482302    13.395907    13.717595    2.2366394    3788.5505    97.142321 
 2051000    725.40456   -921.55857            0   -908.99394   -5115.7472    13.482302    13.395907    13.717595    1.8665249    3790.4825    95.199202 
 2052000    800.01872   -920.83735            0   -906.98034   -5117.3449    13.482302    13.395907    13.717595    2.3071049    3792.4166    93.256145 
 2053000    739.21501   -921.74934            0    -908.9455   -4289.5929    13.482302    13.395907    13.717595    2.4826276    3794.3505    91.313095 
 2054000    808.52158   -922.77959            0    -908.7753   -5840.1483    13.482302    13.395907    13.717595    2.6486983    3796.2842    89.370049 
 2055000    751.04739   -919.59958            0   -906.59079   -4534.5429    13.482302    13.395907    13.717595    2.0449965     3798.217     87.42699 
 2056000      764.856   -922.49299            0   -909.24502   -5871.1753    13.482302    13.395907    13.717595    1.9631138    3800.1486    85.483916 
 2057000    828.31309   -920.03711            0   -905.69002   -3759.5347    13.482302    13.395907    13.717595    2.3299021    3802.0832    83.540918 
 2058000    812.25022    -921.6759            0   -907.60703   -6591.2924    13.482302    13.395907    13.717595    1.6350184    3804.0173     81.59792 
 2059000    810.71987   -922.79324            0   -908.75088   -7253.3971    13.482302    13.395907    13.717595    2.3388563    3805.9516    79.654934 
 2060000    918.83875   -920.53837            0   -904.62329   -4156.1385    13.482302    13.395907    13.717595    2.9254474    3807.8867    77.711974 
 2061000    805.87548   -920.96953            0   -907.01108   -7439.0576    13.482302    13.395907    13.717595    2.0922568    3809.8181    75.768947 
 2062000    730.68431   -921.09222            0   -908.43614   -4157.2925    13.482302    13.395907    13.717595    2.2229143    3811.7544    73.826029 
 2063000    848.37404   -920.70629            0   -906.01172   -1610.9728    13.482302    13.395907    13.717595     2.222652    3813.6897    71.883096 
 2064000    792.17818   -921.06729            0   -907.34609   -4011.9021    13.482302    13.395907    13.717595    2.7200507    3815.6207    69.940094 
 2065000    795.67156   -922.13221            0   -908.35049   -7287.6071    13.482302    13.395907    13.717595    2.0746911    3817.5534    67.997134 
 2066000    840.13476   -920.74884            0   -906.19698   -6501.2741    13.482302    13.395907    13.717595    1.9044461    3819.4886    66.054228 
 2067000    876.36928    -920.8953            0   -905.71584   -2623.5428    13.482302    13.395907    13.717595    1.9068164    3821.4259    64.111365 
 2068000    785.97761   -921.73007            0   -908.11627   -5349.3403    13.482302    13.395907    13.717595    1.8844391    3823.3684    62.168591 
 2069000    817.32069   -922.13168            0   -907.97498   -5088.0168    13.482302    13.395907    13.717595    2.3484569    3825.3049    60.225725 
 2070000    862.37487   -920.49829            0   -905.56121   -4015.1616    13.482302    13.395907    13.717595    2.0988598    3827.2393    58.282833 
 2071000    750.60841   -922.19455            0   -909.19336   -6700.5963    13.482302    13.395907    13.717595    2.6074006    3829.1718    56.339921 
 2072000     823.2945   -921.54125            0   -907.28108   -4371.7593    13.482302    13.395907    13.717595    2.0052334    3831.1046    54.397023 
 2073000    847.24968   -922.43058            0   -907.75549   -6180.5337    13.482302    13.395907    13.717595    2.3467408    3833.0468    52.454264 
 2074000    764.47833    -922.7701            0   -909.52867   -6437.9159    13.482302    13.395907    13.717595    2.0499321    3834.9822    50.511416 
 2075000    860.77813   -921.68269            0   -906.77328    -6014.572    13.482302    13.395907    13.717595    1.9420796     3836.916    48.568557 
 2076000    768.08462   -921.95227            0   -908.64838   -4873.2945    13.482302    13.395907    13.717595    3.0712877    3838.8503    46.625713 
 2077000     748.1296   -923.17075            0    -910.2125   -8003.8911    13.482302    13.395907    13.717595    2.2476476    3840.7799    44.682821 
 2078000    763.13167   -920.97208            0   -907.75399   -5387.6285    13.482302    13.395907    13.717595    2.2581516    3842.7129    42.739982 
 2079000     820.1856   -921.47273            0   -907.26641   -6813.2182    13.482302    13.395907    13.717595    2.2079168    3844.6482    40.797176 
 2080000    804.61171   -924.14072            0   -910.20415    -8303.797    13.482302    13.395907    13.717595    2.4272988    3846.5827     38.85437 
 2081000    832.22758   -921.69182            0   -907.27692   -5894.8923    13.482302    13.395907    13.717595    1.9575659    3848.5159    36.911561 
 2082000    840.10785   -922.32628            0   -907.77489   -5915.2376    13.482302    13.395907    13.717595    3.0973586    3850.4501     34.96877 
 2083000    715.11397    -923.3754            0   -910.98901   -8142.1169    13.482302    13.395907    13.717595    2.7790117    3852.3932    33.026064 
 2084000    785.83167   -921.12009            0   -907.50881   -6179.4767    13.482302    13.395907    13.717595     3.215105    3854.3241    31.083259 
 2085000    760.23545   -920.61953            0    -907.4516   -6029.6693    13.482302    13.395907    13.717595    3.0826434    3856.2592    29.140498 
 2086000    760.69462   -922.62007            0   -909.44419   -6220.1763    13.482302    13.395907    13.717595    2.0371347    3858.1909     27.19772 
 2087000    800.67919   -921.52751            0   -907.65906    -6644.677    13.482302    13.395907    13.717595    2.5308843    3860.1224    25.254953 
 2088000     852.8668   -921.45067            0   -906.67829   -5290.4989    13.482302    13.395907    13.717595    3.5170466    3862.0613    23.312241 
 2089000    761.55916   -922.78233            0   -909.59147   -7327.3065    13.482302    13.395907    13.717595    2.8736406    3863.9971    21.369517 
 2090000     932.5504   -921.87535            0   -905.72277   -2868.2869    13.482302    13.395907    13.717595    2.4347778    3865.9298    19.426783 
 2091000    845.87801   -922.56365            0   -907.91231   -6423.6964    13.482302    13.395907    13.717595    2.2750677     3867.865    17.484071 
 2092000     754.3683   -921.80649            0   -908.74018    -6601.918    13.482302    13.395907    13.717595    2.4432729    3869.8013    15.541371 
 2093000    886.47147    -920.6051            0   -905.25066   -4123.2679    13.482302    13.395907    13.717595    2.6086046    3871.7394    13.598683 
 2094000    749.56079    -920.8481            0   -907.86506   -5738.3232    13.482302    13.395907    13.717595    1.9421961    3873.6754    11.655994 
 2095000    803.30144   -922.07111            0   -908.15724   -5756.5911    13.482302    13.395907    13.717595    1.8325775    3875.6075     9.713302 
 2096000    823.77622   -918.68197            0   -904.41346   -2921.9141    13.482302    13.395907    13.717595    2.6668228    3877.5414    7.7706241 
 2097000    789.10955     -921.306            0   -907.63794    -3881.559    13.482302    13.395907    13.717595    2.2909867    3879.4747     5.827954 
 2098000    736.61553   -921.13571            0   -908.37689   -4312.5686    13.482302    13.395907    13.717595    2.3479822    3881.4075    3.8852928 
 2099000    868.55548   -920.41827            0   -905.37414   -2575.0775    13.482302    13.395907    13.717595    2.2350162    3883.3409    1.9426418 
 2100000    749.98075   -921.31873            0   -908.32842   -3813.0563    13.482302    13.395907    13.717595    1.8677967    3885.2843            0 
Loop time of 3885.28 on 1 procs for 2000000 steps with 135 atoms

Performance: 44.476 ns/day, 0.540 hours/ns, 514.763 timesteps/s
99.9% CPU use with 1 MPI tasks x no OpenMP threads

MPI task timing breakdown:
Section |  min time  |  avg time  |  max time  |%varavg| %total
---------------------------------------------------------------
Pair    | 2651       | 2651       | 2651       |   0.0 | 68.23
Kspace  | 1154.7     | 1154.7     | 1154.7     |   0.0 | 29.72
Neigh   | 31.997     | 31.997     | 31.997     |   0.0 |  0.82
Comm    | 34.064     | 34.064     | 34.064     |   0.0 |  0.88
Output  | 0.59394    | 0.59394    | 0.59394    |   0.0 |  0.02
Modify  | 6.1389     | 6.1389     | 6.1389     |   0.0 |  0.16
Other   |            | 6.8        |            |       |  0.18

Nlocal:        135.000 ave         135 max         135 min
Histogram: 1 0 0 0 0 0 0 0 0 0
Nghost:        3975.00 ave        3975 max        3975 min
Histogram: 1 0 0 0 0 0 0 0 0 0
Neighs:        42267.0 ave       42267 max       42267 min
Histogram: 1 0 0 0 0 0 0 0 0 0

Total # of neighbors = 42267
Ave neighs/atom = 313.08889
Neighbor list builds = 28860
Dangerous builds = 0

# Final Commands
variable final_energy equal etotal
print "final_energy: ${final_energy}"
final_energy: -908.328420674148
print "END_OF_COMP"
END_OF_COMP
Total wall time: 1:08:36
