 # Na78 V6 Cl24 O27
 
         135  atoms
           4  atom types
 
      0.000000000000      13.503000000000  xlo xhi
      0.000000000000      13.503000000000  ylo yhi
      0.000000000000      13.503000000000  zlo zhi
 
Masses
 
            1   22.98976928             # Na
            2   0                       # V
            3   15.99900000             # O
            4   35.45000000             # Cl
 
Atoms # atomic
 
         1    1        2.250500045010       2.250500045010       0.000000000000
         2    1        2.250500045010       2.250500045010       4.500999954990
         3    1        2.250500045010       2.250500045010       9.002000045010
         4    1        2.250500045010       6.751500000000       0.000000000000
         5    1        2.250500045010       6.751500000000       4.500999954990
         6    1        2.250500045010       6.751500000000       9.002000045010
         7    2        2.250500045010      11.252499954990       0.000000000000
         8    1        2.250500045010      11.252499954990       4.500999954990
         9    1        2.250500045010      11.252499954990       9.002000045010
        10    1        6.751500000000       2.250500045010       0.000000000000
        11    1        6.751500000000       2.250500045010       4.500999954990
        12    1        6.751500000000       2.250500045010       9.002000045010
        13    1        6.751500000000       6.751500000000       0.000000000000
        14    1        6.751500000000       6.751500000000       4.500999954990
        15    1        6.751500000000       6.751500000000       9.002000045010
        16    1        6.751500000000      11.252499954990       0.000000000000
        17    1        6.751500000000      11.252499954990       4.500999954990
        18    1        6.751500000000      11.252499954990       9.002000045010
        19    1       11.252499954990       2.250500045010       0.000000000000
        20    1       11.252499954990       2.250500045010       4.500999954990
        21    1       11.252499954990       2.250500045010       9.002000045010
        22    1       11.252499954990       6.751500000000       0.000000000000
        23    1       11.252499954990       6.751500000000       4.500999954990
        24    1       11.252499954990       6.751500000000       9.002000045010
        25    1       11.252499954990      11.252499954990       0.000000000000
        26    1       11.252499954990      11.252499954990       4.500999954990
        27    1       11.252499954990      11.252499954990       9.002000045010
        28    1        2.250500045010       0.000000000000       2.250500045010
        29    1        2.250500045010       0.000000000000       6.751500000000
        30    1        2.250500045010       0.000000000000      11.252499954990
        31    1        2.250500045010       4.500999954990       2.250500045010
        32    1        2.250500045010       4.500999954990       6.751500000000
        33    1        2.250500045010       4.500999954990      11.252499954990
        34    1        2.250500045010       9.002000045010       2.250500045010
        35    2        2.250500045010       9.002000045010       6.751500000000
        36    1        2.250500045010       9.002000045010      11.252499954990
        37    1        6.751500000000       0.000000000000       2.250500045010
        38    1        6.751500000000       0.000000000000       6.751500000000
        39    1        6.751500000000       0.000000000000      11.252499954990
        40    1        6.751500000000       4.500999954990       2.250500045010
        41    1        6.751500000000       4.500999954990       6.751500000000
        42    1        6.751500000000       4.500999954990      11.252499954990
        43    1        6.751500000000       9.002000045010       2.250500045010
        44    1        6.751500000000       9.002000045010       6.751500000000
        45    1        6.751500000000       9.002000045010      11.252499954990
        46    1       11.252499954990       0.000000000000       2.250500045010
        47    1       11.252499954990       0.000000000000       6.751500000000
        48    1       11.252499954990       0.000000000000      11.252499954990
        49    1       11.252499954990       4.500999954990       2.250500045010
        50    1       11.252499954990       4.500999954990       6.751500000000
        51    1       11.252499954990       4.500999954990      11.252499954990
        52    1       11.252499954990       9.002000045010       2.250500045010
        53    1       11.252499954990       9.002000045010       6.751500000000
        54    1       11.252499954990       9.002000045010      11.252499954990
        55    1        0.000000000000       2.250500045010       2.250500045010
        56    1        0.000000000000       2.250500045010       6.751500000000
        57    1        0.000000000000       2.250500045010      11.252499954990
        58    1        0.000000000000       6.751500000000       2.250500045010
        59    1        0.000000000000       6.751500000000       6.751500000000
        60    1        0.000000000000       6.751500000000      11.252499954990
        61    1        0.000000000000      11.252499954990       2.250500045010
        62    1        0.000000000000      11.252499954990       6.751500000000
        63    1        0.000000000000      11.252499954990      11.252499954990
        64    1        4.500999954990       2.250500045010       2.250500045010
        65    1        4.500999954990       2.250500045010       6.751500000000
        66    1        4.500999954990       2.250500045010      11.252499954990
        67    1        4.500999954990       6.751500000000       2.250500045010
        68    1        4.500999954990       6.751500000000       6.751500000000
        69    1        4.500999954990       6.751500000000      11.252499954990
        70    1        4.500999954990      11.252499954990       2.250500045010
        71    1        4.500999954990      11.252499954990       6.751500000000
        72    1        4.500999954990      11.252499954990      11.252499954990
        73    1        9.002000045010       2.250500045010       2.250500045010
        74    1        9.002000045010       2.250500045010       6.751500000000
        75    1        9.002000045010       2.250500045010      11.252499954990
        76    1        9.002000045010       6.751500000000       2.250500045010
        77    1        9.002000045010       6.751500000000       6.751500000000
        78    1        9.002000045010       6.751500000000      11.252499954990
        79    2        9.002000045010      11.252499954990       2.250500045010
        80    1        9.002000045010      11.252499954990       6.751500000000
        81    1        9.002000045010      11.252499954990      11.252499954990
        82    3        2.250500045010       2.250500045010       2.250500045010
        83    3        2.250500045010       2.250500045010       6.751500000000
        84    3        2.250500045010       2.250500045010      11.252499954990
        85    3        2.250500045010       6.751500000000       2.250500045010
        86    3        2.250500045010       6.751500000000       6.751500000000
        87    3        2.250500045010       6.751500000000      11.252499954990
        88    3        2.250500045010      11.252499954990       2.250500045010
        89    3        2.250500045010      11.252499954990       6.751500000000
        90    3        2.250500045010      11.252499954990      11.252499954990
        91    3        6.751500000000       2.250500045010       2.250500045010
        92    3        6.751500000000       2.250500045010       6.751500000000
        93    3        6.751500000000       2.250500045010      11.252499954990
        94    3        6.751500000000       6.751500000000       2.250500045010
        95    3        6.751500000000       6.751500000000       6.751500000000
        96    3        6.751500000000       6.751500000000      11.252499954990
        97    3        6.751500000000      11.252499954990       2.250500045010
        98    3        6.751500000000      11.252499954990       6.751500000000
        99    3        6.751500000000      11.252499954990      11.252499954990
       100    3       11.252499954990       2.250500045010       2.250500045010
       101    3       11.252499954990       2.250500045010       6.751500000000
       102    3       11.252499954990       2.250500045010      11.252499954990
       103    3       11.252499954990       6.751500000000       2.250500045010
       104    3       11.252499954990       6.751500000000       6.751500000000
       105    3       11.252499954990       6.751500000000      11.252499954990
       106    3       11.252499954990      11.252499954990       2.250500045010
       107    3       11.252499954990      11.252499954990       6.751500000000
       108    3       11.252499954990      11.252499954990      11.252499954990
       109    4        0.000000000000       0.000000000000       0.000000000000
       110    4        0.000000000000       0.000000000000       4.500999954990
       111    4        0.000000000000       0.000000000000       9.002000045010
       112    4        0.000000000000       4.500999954990       0.000000000000
       113    4        0.000000000000       4.500999954990       4.500999954990
       114    4        0.000000000000       4.500999954990       9.002000045010
       115    2        0.000000000000       9.002000045010       0.000000000000
       116    4        0.000000000000       9.002000045010       4.500999954990
       117    4        0.000000000000       9.002000045010       9.002000045010
       118    4        4.500999954990       0.000000000000       0.000000000000
       119    4        4.500999954990       0.000000000000       4.500999954990
       120    4        4.500999954990       0.000000000000       9.002000045010
       121    2        4.500999954990       4.500999954990       0.000000000000
       122    4        4.500999954990       4.500999954990       4.500999954990
       123    4        4.500999954990       4.500999954990       9.002000045010
       124    2        4.500999954990       9.002000045010       0.000000000000
       125    4        4.500999954990       9.002000045010       4.500999954990
       126    4        4.500999954990       9.002000045010       9.002000045010
       127    4        9.002000045010       0.000000000000       0.000000000000
       128    4        9.002000045010       0.000000000000       4.500999954990
       129    4        9.002000045010       0.000000000000       9.002000045010
       130    4        9.002000045010       4.500999954990       0.000000000000
       131    4        9.002000045010       4.500999954990       4.500999954990
       132    4        9.002000045010       4.500999954990       9.002000045010
       133    4        9.002000045010       9.002000045010       0.000000000000
       134    4        9.002000045010       9.002000045010       4.500999954990
       135    4        9.002000045010       9.002000045010       9.002000045010
